CRYSTAL
PRIMVEC
  5.291772   0.000000   0.000000
  0.000000   5.291772   0.000000
  0.000000   0.000000   5.291772
PRIMCOORD
3 1
 1   0.000000   0.597970   0.767307
 1   0.000000   0.597970  -0.767307
 8   0.000000   0.000000   0.000000
BEGIN_BLOCK_DATAGRID_3D
 water.wfns_0_0.rs
 BEGIN_DATAGRID_3D_water.wfns_0_0.rs
  49 49 49
    0.000000   0.000000   0.000000
    5.291772   0.000000   0.000000
    0.000000   5.291772   0.000000
    0.000000   0.000000   5.291772
  4.741331e-01 4.576552e-01 4.122436e-01 3.482268e-01 2.780832e-01 2.122328e-01 1.567535e-01 1.134469e-01 8.130842e-02 5.814566e-02 4.164965e-02 2.988735e-02 2.144367e-02 1.537480e-02 1.105390e-02 8.006959e-03 5.838414e-03 4.253680e-03 3.088001e-03 2.266329e-03 1.722535e-03 1.363474e-03 1.106880e-03 9.310587e-04 8.653847e-04 9.310530e-04 1.106869e-03 1.363458e-03 1.722516e-03 2.266308e-03 3.087979e-03 4.253657e-03 5.838391e-03 8.006936e-03 1.105388e-02 1.537478e-02 2.144365e-02 2.988734e-02 4.164964e-02 5.814566e-02 8.130842e-02 1.134469e-01 1.567535e-01 2.122328e-01 2.780833e-01 3.482269e-01 4.122436e-01 4.576552e-01 4.741331e-01
  5.014036e-01 4.835636e-01 4.344925e-01 3.655850e-01 2.905220e-01 2.205846e-01 1.621686e-01 1.169555e-01 8.363483e-02 5.973009e-02 4.274788e-02 3.065382e-02 2.197650e-02 1.574014e-02 1.130187e-02 8.178252e-03 5.962187e-03 4.345359e-03 3.153780e-03 2.311011e-03 1.752869e-03 1.385563e-03 1.123568e-03 9.434935e-04 8.760059e-04 9.434878e-04 1.123557e-03 1.385547e-03 1.752850e-03 2.310990e-03 3.153757e-03 4.345336e-03 5.962164e-03 8.178229e-03 1.130185e-02 1.574012e-02 2.197648e-02 3.065380e-02 4.274787e-02 5.973009e-02 8.363483e-02 1.169555e-01 1.621686e-01 2.205847e-01 2.905221e-01 3.655852e-01 4.344926e-01 4.835636e-01 5.014036e-01
  4.927717e-01 4.751253e-01 4.266429e-01 3.587131e-01 2.849403e-01 2.164353e-01 1.593751e-01 1.152608e-01 8.270532e-02 5.926348e-02 4.253143e-02 3.056418e-02 2.194906e-02 1.574042e-02 1.131148e-02 8.189692e-03 5.974092e-03 4.357189e-03 3.163465e-03 2.316415e-03 1.753994e-03 1.384560e-03 1.122831e-03 9.439999e-04 8.771413e-04 9.439942e-04 1.122820e-03 1.384545e-03 1.753975e-03 2.316393e-03 3.163442e-03 4.357166e-03 5.974068e-03 8.189669e-03 1.131146e-02 1.574040e-02 2.194904e-02 3.056417e-02 4.253143e-02 5.926348e-02 8.270533e-02 1.152608e-01 1.593751e-01 2.164353e-01 2.849404e-01 3.587132e-01 4.266430e-01 4.751254e-01 4.927717e-01
  4.504512e-01 4.345068e-01 3.907169e-01 3.293920e-01 2.627967e-01 2.008801e-01 1.491178e-01 1.088171e-01 7.876795e-02 5.686791e-02 4.105542e-02 2.964138e-02 2.136962e-02 1.537767e-02 1.108284e-02 8.041412e-03 5.874663e-03 4.290017e-03 3.118464e-03 2.285026e-03 1.729583e-03 1.364667e-03 1.108433e-03 9.354612e-04 8.712368e-04 9.354556e-04 1.108422e-03 1.364651e-03 1.729564e-03 2.285005e-03 3.118441e-03 4.289994e-03 5.874640e-03 8.041390e-03 1.108282e-02 1.537765e-02 2.136961e-02 2.964137e-02 4.105541e-02 5.686791e-02 7.876795e-02 1.088171e-01 1.491178e-01 2.008801e-01 2.627968e-01 3.293921e-01 3.907169e-01 4.345069e-01 4.504512e-01
  3.851354e-01 3.719397e-01 3.356752e-01 2.848018e-01 2.293535e-01 1.774480e-01 1.335684e-01 9.886175e-02 7.248750e-02 5.289155e-02 3.850448e-02 2.798622e-02 2.029336e-02 1.468085e-02 1.063058e-02 7.741625e-03 5.670289e-03 4.150264e-03 3.025511e-03 2.223574e-03 1.685769e-03 1.330594e-03 1.082960e-03 9.184325e-04 8.579986e-04 9.184270e-04 1.082950e-03 1.330579e-03 1.685750e-03 2.223553e-03 3.025488e-03 4.150240e-03 5.670266e-03 7.741603e-03 1.063055e-02 1.468083e-02 2.029335e-02 2.798621e-02 3.850447e-02 5.289155e-02 7.248751e-02 9.886176e-02 1.335684e-01 1.774480e-01 2.293536e-01 2.848018e-01 3.356753e-01 3.719397e-01 3.851354e-01
  3.113012e-01 3.012290e-01 2.734900e-01 2.343881e-01 1.914003e-01 1.506032e-01 1.154368e-01 8.694102e-02 6.471955e-02 4.781152e-02 3.515464e-02 2.576395e-02 1.881957e-02 1.370802e-02 9.987734e-03 7.309740e-03 5.373838e-03 3.947563e-03 2.891943e-03 2.137303e-03 1.625966e-03 1.284150e-03 1.046683e-03 8.918837e-04 8.358638e-04 8.918784e-04 1.046673e-03 1.284135e-03 1.625948e-03 2.137282e-03 2.891921e-03 3.947540e-03 5.373816e-03 7.309718e-03 9.987714e-03 1.370800e-02 1.881956e-02 2.576393e-02 3.515463e-02 4.781152e-02 6.471955e-02 8.694104e-02 1.154368e-01 1.506033e-01 1.914003e-01 2.343881e-01 2.734900e-01 3.012290e-01 3.113012e-01
  2.415473e-01 2.343625e-01 2.144927e-01 1.862306e-01 1.546962e-01 1.241241e-01 9.704687e-02 7.443568e-02 5.628553e-02 4.213058e-02 3.132337e-02 2.317792e-02 1.707772e-02 1.254009e-02 9.204059e-03 6.776380e-03 5.004344e-03 3.693216e-03 2.723186e-03 2.027399e-03 1.549167e-03 1.223954e-03 9.986959e-04 8.553659e-04 8.045346e-04 8.553607e-04 9.986858e-04 1.223939e-03 1.549149e-03 2.027378e-03 2.723164e-03 3.693193e-03 5.004322e-03 6.776358e-03 9.204039e-03 1.254007e-02 1.707771e-02 2.317791e-02 3.132336e-02 4.213058e-02 5.628554e-02 7.443569e-02 9.704688e-02 1.241241e-01 1.546963e-01 1.862306e-01 2.144927e-01 2.343625e-01 2.415473e-01
  1.830449e-01 1.781524e-01 1.645325e-01 1.448952e-01 1.225232e-01 1.002328e-01 7.986381e-02 6.231779e-02 4.784379e-02 3.629888e-02 2.731554e-02 2.043075e-02 1.520036e-02 1.126297e-02 8.334939e-03 6.177122e-03 4.584162e-03 3.399919e-03 2.524470e-03 1.894067e-03 1.453534e-03 1.148583e-03 9.389828e-04 8.099841e-04 7.654971e-04 8.099792e-04 9.389731e-04 1.148569e-03 1.453516e-03 1.894047e-03 2.524448e-03 3.399897e-03 4.584140e-03 6.177101e-03 8.334919e-03 1.126295e-02 1.520035e-02 2.043074e-02 2.731553e-02 3.629887e-02 4.784379e-02 6.231780e-02 7.986382e-02 1.002328e-01 1.225232e-01 1.448952e-01 1.645325e-01 1.781524e-01 1.830449e-01
  1.373758e-01 1.341082e-01 1.249342e-01 1.114847e-01 9.579250e-02 7.970454e-02 6.456356e-02 5.116751e-02 3.986477e-02 3.067004e-02 2.337893e-02 1.768833e-02 1.329678e-02 9.948753e-03 7.428227e-03 5.544062e-03 4.134956e-03 3.081770e-03 2.303993e-03 1.741462e-03 1.341370e-03 1.060056e-03 8.696122e-04 7.575890e-04 7.204250e-04 7.575842e-04 8.696029e-04 1.060042e-03 1.341353e-03 1.741443e-03 2.303972e-03 3.081749e-03 4.134934e-03 5.544041e-03 7.428208e-03 9.948736e-03 1.329677e-02 1.768832e-02 2.337892e-02 3.067004e-02 3.986477e-02 5.116752e-02 6.456357e-02 7.970455e-02 9.579251e-02 1.114847e-01 1.249342e-01 1.341082e-01 1.373758e-01
  1.027489e-01 1.005580e-01 9.435409e-02 8.511084e-02 7.408978e-02 6.251582e-02 5.136884e-02 4.130407e-02 3.265473e-02 2.548523e-02 1.968361e-02 1.506540e-02 1.144423e-02 8.649718e-03 6.519440e-03 4.902113e-03 3.675390e-03 2.753421e-03 2.073271e-03 1.578658e-03 1.220043e-03 9.641738e-04 7.943277e-04 6.997800e-04 6.699661e-04 6.997754e-04 7.943188e-04 9.641609e-04 1.220027e-03 1.578639e-03 2.073250e-03 2.753400e-03 3.675368e-03 4.902092e-03 6.519421e-03 8.649701e-03 1.144421e-02 1.506539e-02 1.968361e-02 2.548523e-02 3.265472e-02 4.130408e-02 5.136884e-02 6.251582e-02 7.408978e-02 8.511085e-02 9.435410e-02 1.005580e-01 1.027489e-01
  7.653133e-02 7.504556e-02 7.081037e-02 6.442226e-02 5.668276e-02 4.841308e-02 4.031292e-02 3.287836e-02 2.637640e-02 2.087684e-02 1.632812e-02 1.263526e-02 9.697524e-03 7.405669e-03 5.636559e-03 4.271495e-03 3.221427e-03 2.428318e-03 1.843721e-03 1.415365e-03 1.097831e-03 8.674804e-04 7.172072e-04 6.381255e-04 6.145962e-04 6.381211e-04 7.171987e-04 8.674680e-04 1.097816e-03 1.415346e-03 1.843701e-03 2.428297e-03 3.221405e-03 4.271474e-03 5.636540e-03 7.405652e-03 9.697510e-03 1.263524e-02 1.632811e-02 2.087683e-02 2.637639e-02 3.287836e-02 4.031292e-02 4.841308e-02 5.668276e-02 6.442226e-02 7.081037e-02 7.504556e-02 7.653133e-02
  5.664201e-02 5.563138e-02 5.273837e-02 4.833938e-02 4.294999e-02 3.711394e-02 3.131095e-02 2.589382e-02 2.106307e-02 1.688776e-02 1.336035e-02 1.044680e-02 8.100670e-03 6.251500e-03 4.805225e-03 3.670993e-03 2.787221e-03 2.116986e-03 1.622805e-03 1.256951e-03 9.791489e-04 7.739461e-04 6.415530e-04 5.750504e-04 5.563154e-04 5.750462e-04 6.415448e-04 7.739342e-04 9.791337e-04 1.256933e-03 1.622785e-03 2.116965e-03 2.787199e-03 3.670972e-03 4.805205e-03 6.251482e-03 8.100655e-03 1.044679e-02 1.336034e-02 1.688776e-02 2.106306e-02 2.589382e-02 3.131095e-02 3.711394e-02 4.294999e-02 4.833939e-02 5.273837e-02 5.563138e-02 5.664201e-02
  4.169511e-02 4.101211e-02 3.905167e-02 3.605279e-02 3.234219e-02 2.826772e-02 2.414559e-02 2.022160e-02 1.665030e-02 1.350241e-02 1.079698e-02 8.531352e-03 6.686058e-03 5.214381e-03 4.046648e-03 3.116839e-03 2.384393e-03 1.826384e-03 1.413466e-03 1.103993e-03 8.641176e-04 6.845592e-04 5.696259e-04 5.137988e-04 4.987248e-04 5.137948e-04 5.696180e-04 6.845477e-04 8.641028e-04 1.103975e-03 1.413446e-03 1.826363e-03 2.384371e-03 3.116817e-03 4.046628e-03 5.214362e-03 6.686041e-03 8.531339e-03 1.079697e-02 1.350241e-02 1.665030e-02 2.022160e-02 2.414558e-02 2.826772e-02 3.234219e-02 3.605280e-02 3.905167e-02 4.101211e-02 4.169511e-02
  3.063360e-02 3.017384e-02 2.885140e-02 2.681705e-02 2.427263e-02 2.143342e-02 1.850476e-02 1.566205e-02 1.303064e-02 1.067891e-02 8.633041e-03 6.898241e-03 5.465482e-03 4.305509e-03 3.371570e-03 2.618734e-03 2.020122e-03 1.560386e-03 1.216902e-03 9.563616e-04 7.524717e-04 5.997169e-04 5.029675e-04 4.570528e-04 4.449940e-04 4.570489e-04 5.029598e-04 5.997057e-04 7.524573e-04 9.563443e-04 1.216883e-03 1.560365e-03 2.020100e-03 2.618712e-03 3.371548e-03 4.305489e-03 5.465464e-03 6.898226e-03 8.633029e-03 1.067890e-02 1.303063e-02 1.566205e-02 1.850476e-02 2.143342e-02 2.427263e-02 2.681705e-02 2.885140e-02 3.017384e-02 3.063360e-02
  2.250927e-02 2.219715e-02 2.129834e-02 1.990951e-02 1.815505e-02 1.616716e-02 1.408089e-02 1.202525e-02 1.010193e-02 8.368554e-03 6.844645e-03 5.532364e-03 4.428344e-03 3.519540e-03 2.779587e-03 2.178659e-03 1.696378e-03 1.320585e-03 1.035207e-03 8.169165e-04 6.470125e-04 5.213267e-04 4.426386e-04 4.055910e-04 3.959038e-04 4.055871e-04 4.426311e-04 5.213157e-04 6.469983e-04 8.168994e-04 1.035187e-03 1.320563e-03 1.696356e-03 2.178636e-03 2.779565e-03 3.519519e-03 4.428324e-03 5.532347e-03 6.844630e-03 8.368542e-03 1.010193e-02 1.202525e-02 1.408089e-02 1.616716e-02 1.815505e-02 1.990951e-02 2.129834e-02 2.219715e-02 2.250927e-02
  1.652278e-02 1.630770e-02 1.568885e-02 1.473159e-02 1.351514e-02 1.212178e-02 1.064124e-02 9.167665e-03 7.778941e-03 6.516975e-03 5.391611e-03 4.402596e-03 3.553470e-03 2.845365e-03 2.266331e-03 1.794592e-03 1.411559e-03 1.106853e-03 8.711481e-04 6.906635e-04 5.525562e-04 4.520396e-04 3.889775e-04 3.584735e-04 3.501846e-04 3.584698e-04 3.889701e-04 4.520288e-04 5.525421e-04 6.906464e-04 8.711286e-04 1.106831e-03 1.411536e-03 1.794569e-03 2.266308e-03 2.845343e-03 3.553449e-03 4.402577e-03 5.391595e-03 6.516961e-03 7.778930e-03 9.167657e-03 1.064123e-02 1.212178e-02 1.351514e-02 1.473159e-02 1.568885e-02 1.630770e-02 1.652278e-02
  1.210086e-02 1.195188e-02 1.152438e-02 1.086464e-02 1.002459e-02 9.055332e-03 8.015067e-03 6.969495e-03 5.974261e-03 5.057492e-03 4.224009e-03 3.475886e-03 2.823732e-03 2.277112e-03 1.830489e-03 1.465005e-03 1.163291e-03 9.180431e-04 7.262436e-04 5.807893e-04 4.716621e-04 3.924742e-04 3.411462e-04 3.145181e-04 3.067200e-04 3.145144e-04 3.411388e-04 3.924634e-04 4.716480e-04 5.807723e-04 7.262240e-04 9.180215e-04 1.163268e-03 1.464981e-03 1.830465e-03 2.277089e-03 2.823710e-03 3.475865e-03 4.223991e-03 5.057476e-03 5.974249e-03 6.969485e-03 8.015059e-03 9.055327e-03 1.002459e-02 1.086464e-02 1.152438e-02 1.195188e-02 1.210086e-02
  8.859253e-03 8.757079e-03 8.464635e-03 8.014176e-03 7.439035e-03 6.769689e-03 6.042420e-03 5.301365e-03 4.585165e-03 3.913546e-03 3.291490e-03 2.725352e-03 2.229159e-03 1.813347e-03 1.472444e-03 1.189216e-03 9.502246e-04 7.533619e-04 6.002952e-04 4.865489e-04 4.022311e-04 3.398310e-04 2.972000e-04 2.734575e-04 2.660860e-04 2.734538e-04 2.971925e-04 3.398201e-04 4.022168e-04 4.865317e-04 6.002754e-04 7.533401e-04 9.502013e-04 1.189192e-03 1.472419e-03 1.813323e-03 2.229135e-03 2.725330e-03 3.291471e-03 3.913528e-03 4.585150e-03 5.301352e-03 6.042411e-03 6.769681e-03 7.439030e-03 8.014172e-03 8.464633e-03 8.757078e-03 8.859253e-03
  6.506834e-03 6.437556e-03 6.239127e-03 5.932406e-03 5.537519e-03 5.072172e-03 4.559358e-03 4.029282e-03 3.509361e-03 3.014652e-03 2.551497e-03 2.128461e-03 1.758154e-03 1.446814e-03 1.186830e-03 9.641038e-04 7.718512e-04 6.136514e-04 4.932173e-04 4.054863e-04 3.399904e-04 2.900486e-04 2.551677e-04 2.357596e-04 2.298088e-04 2.357558e-04 2.551601e-04 2.900374e-04 3.399759e-04 4.054688e-04 4.931973e-04 6.136294e-04 7.718276e-04 9.640792e-04 1.186805e-03 1.446789e-03 1.758129e-03 2.128439e-03 2.551476e-03 3.014633e-03 3.509344e-03 4.029268e-03 4.559347e-03 5.072163e-03 5.537512e-03 5.932401e-03 6.239123e-03 6.437555e-03 6.506834e-03
  4.799362e-03 4.752094e-03 4.616033e-03 4.403682e-03 4.126916e-03 3.797052e-03 3.430519e-03 3.049241e-03 2.672711e-03 2.311754e-03 1.972156e-03 1.661891e-03 1.390129e-03 1.158731e-03 9.593005e-04 7.822218e-04 6.270598e-04 5.007751e-04 4.063392e-04 3.370322e-04 2.832960e-04 2.418027e-04 2.146594e-04 2.017377e-04 1.984267e-04 2.017338e-04 2.146516e-04 2.417913e-04 2.832812e-04 3.370144e-04 4.063190e-04 5.007529e-04 6.270360e-04 7.821970e-04 9.592753e-04 1.158706e-03 1.390105e-03 1.661868e-03 1.972134e-03 2.311734e-03 2.672694e-03 3.049225e-03 3.430506e-03 3.797042e-03 4.126907e-03 4.403676e-03 4.616029e-03 4.752093e-03 4.799362e-03
  3.551680e-03 3.518548e-03 3.422690e-03 3.271855e-03 3.073863e-03 2.837371e-03 2.575329e-03 2.303734e-03 2.035196e-03 1.775605e-03 1.528574e-03 1.300845e-03 1.099834e-03 9.262351e-04 7.730923e-04 6.344845e-04 5.128364e-04 4.146938e-04 3.405488e-04 2.828508e-04 2.349667e-04 1.983321e-04 1.776435e-04 1.712008e-04 1.706803e-04 1.711968e-04 1.776356e-04 1.983205e-04 2.349517e-04 2.828328e-04 3.405283e-04 4.146714e-04 5.128124e-04 6.344597e-04 7.730670e-04 9.262099e-04 1.099809e-03 1.300821e-03 1.528552e-03 1.775585e-03 2.035178e-03 2.303717e-03 2.575315e-03 2.837359e-03 3.073854e-03 3.271848e-03 3.422685e-03 3.518546e-03 3.551680e-03
  2.645082e-03 2.621060e-03 2.551789e-03 2.443403e-03 2.302073e-03 2.134442e-03 1.949879e-03 1.758968e-03 1.568582e-03 1.380510e-03 1.196542e-03 1.023213e-03 8.687312e-04 7.355656e-04 6.191136e-04 5.148629e-04 4.242392e-04 3.508733e-04 2.929418e-04 2.434608e-04 1.990927e-04 1.649289e-04 1.473498e-04 1.439439e-04 1.447095e-04 1.439397e-04 1.473416e-04 1.649170e-04 1.990774e-04 2.434426e-04 2.929211e-04 3.508507e-04 4.242153e-04 5.148381e-04 6.190884e-04 7.355405e-04 8.687067e-04 1.023190e-03 1.196520e-03 1.380489e-03 1.568564e-03 1.758951e-03 1.949865e-03 2.134430e-03 2.302063e-03 2.443396e-03 2.551785e-03 2.621057e-03 2.645082e-03
  2.002177e-03 1.984073e-03 1.932901e-03 1.855191e-03 1.756210e-03 1.639571e-03 1.510072e-03 1.373846e-03 1.234807e-03 1.093344e-03 9.506760e-04 8.133047e-04 6.904064e-04 5.864601e-04 4.985949e-04 4.220488e-04 3.559415e-04 3.015332e-04 2.565791e-04 2.154824e-04 1.762480e-04 1.442044e-04 1.258730e-04 1.203329e-04 1.199851e-04 1.203287e-04 1.258647e-04 1.441924e-04 1.762326e-04 2.154640e-04 2.565583e-04 3.015106e-04 3.559176e-04 4.220241e-04 4.985699e-04 5.864353e-04 6.903822e-04 8.132814e-04 9.506540e-04 1.093324e-03 1.234789e-03 1.373829e-03 1.510057e-03 1.639559e-03 1.756201e-03 1.855184e-03 1.932896e-03 1.984070e-03 2.002177e-03
  1.561186e-03 1.546635e-03 1.507044e-03 1.450297e-03 1.380836e-03 1.298505e-03 1.203580e-03 1.099884e-03 9.919404e-04 8.815688e-04 7.698617e-04 6.615783e-04 5.644622e-04 4.831154e-04 4.154147e-04 3.564159e-04 3.043517e-04 2.606800e-04 2.250361e-04 1.933068e-04 1.621576e-04 1.335426e-04 1.125276e-04 1.013981e-04 9.824268e-05 1.013939e-04 1.125193e-04 1.335306e-04 1.621422e-04 1.932885e-04 2.250154e-04 2.606575e-04 3.043279e-04 3.563915e-04 4.153900e-04 4.830910e-04 5.644383e-04 6.615554e-04 7.698400e-04 8.815486e-04 9.919219e-04 1.099867e-03 1.203565e-03 1.298493e-03 1.380826e-03 1.450290e-03 1.507039e-03 1.546632e-03 1.561186e-03
  1.275716e-03 1.262899e-03 1.229530e-03 1.185020e-03 1.133135e-03 1.070399e-03 9.938408e-04 9.071352e-04 8.176750e-04 7.298920e-04 6.442226e-04 5.618064e-04 4.867553e-04 4.222725e-04 3.666676e-04 3.157126e-04 2.684277e-04 2.281815e-04 1.974881e-04 1.736387e-04 1.510336e-04 1.270947e-04 1.045819e-04 8.861003e-05 8.289158e-05 8.860588e-05 1.045737e-04 1.270828e-04 1.510183e-04 1.736206e-04 1.974677e-04 2.281593e-04 2.684043e-04 3.156885e-04 3.666433e-04 4.222485e-04 4.867318e-04 5.617838e-04 6.442012e-04 7.298721e-04 8.176567e-04 9.071188e-04 9.938263e-04 1.070387e-03 1.133125e-03 1.185012e-03 1.229525e-03 1.262897e-03 1.275716e-03
  1.122076e-03 1.109918e-03 1.079220e-03 1.040445e-03 9.969786e-04 9.433607e-04 8.749768e-04 7.961591e-04 7.168279e-04 6.432068e-04 5.746672e-04 5.090086e-04 4.473060e-04 3.918912e-04 3.419268e-04 2.941721e-04 2.481871e-04 2.082300e-04 1.785302e-04 1.578105e-04 1.400265e-04 1.203821e-04 9.975690e-05 8.357141e-05 7.742423e-05 8.356738e-05 9.974898e-05 1.203706e-04 1.400116e-04 1.577928e-04 1.785103e-04 2.082083e-04 2.481641e-04 2.941484e-04 3.419029e-04 3.918674e-04 4.472827e-04 5.089862e-04 5.746460e-04 6.431869e-04 7.168096e-04 7.961427e-04 8.749624e-04 9.433484e-04 9.969686e-04 1.040437e-03 1.079215e-03 1.109915e-03 1.122076e-03
  1.090579e-03 1.078691e-03 1.048884e-03 1.011709e-03 9.704226e-04 9.192254e-04 8.532551e-04 7.769257e-04 7.003894e-04 6.297638e-04 5.637472e-04 4.993424e-04 4.375271e-04 3.815896e-04 3.320385e-04 2.861308e-04 2.424306e-04 2.034383e-04 1.724997e-04 1.494270e-04 1.306689e-04 1.133729e-04 9.803397e-05 8.729985e-05 8.345745e-05 8.729600e-05 9.802638e-05 1.133618e-04 1.306546e-04 1.494099e-04 1.724803e-04 2.034171e-04 2.424081e-04 2.861074e-04 3.320148e-04 3.815659e-04 4.375038e-04 4.993199e-04 5.637258e-04 6.297438e-04 7.003710e-04 7.769092e-04 8.532406e-04 9.192131e-04 9.704125e-04 1.011701e-03 1.048879e-03 1.078689e-03 1.090579e-03
  1.172430e-03 1.160540e-03 1.130118e-03 1.090722e-03 1.045684e-03 9.905400e-04 9.215793e-04 8.426791e-04 7.619802e-04 6.838916e-04 6.072105e-04 5.307070e-04 4.575422e-04 3.927127e-04 3.378751e-04 2.906929e-04 2.485989e-04 2.111428e-04 1.785820e-04 1.504333e-04 1.268057e-04 1.097260e-04 1.010119e-04 9.896443e-05 9.909888e-05 9.896079e-05 1.010047e-04 1.097155e-04 1.267921e-04 1.504169e-04 1.785632e-04 2.111221e-04 2.485768e-04 2.906698e-04 3.378515e-04 3.926890e-04 4.575188e-04 5.306844e-04 6.071889e-04 6.838714e-04 7.619616e-04 8.426623e-04 9.215646e-04 9.905275e-04 1.045673e-03 1.090714e-03 1.130112e-03 1.160537e-03 1.172430e-03
  1.365948e-03 1.353241e-03 1.319282e-03 1.271899e-03 1.214713e-03 1.146038e-03 1.064887e-03 9.751601e-04 8.826128e-04 7.897649e-04 6.961405e-04 6.028954e-04 5.147074e-04 4.364014e-04 3.694609e-04 3.128646e-04 2.656220e-04 2.264995e-04 1.923903e-04 1.602509e-04 1.317720e-04 1.135318e-04 1.096904e-04 1.151565e-04 1.188971e-04 1.151531e-04 1.096837e-04 1.135218e-04 1.317591e-04 1.602353e-04 1.923722e-04 2.264794e-04 2.656003e-04 3.128417e-04 3.694374e-04 4.363776e-04 5.146838e-04 6.028725e-04 6.961186e-04 7.897444e-04 8.825940e-04 9.751432e-04 1.064872e-03 1.146025e-03 1.214703e-03 1.271891e-03 1.319277e-03 1.353238e-03 1.365948e-03
  1.694080e-03 1.679009e-03 1.636831e-03 1.573594e-03 1.493398e-03 1.397946e-03 1.290113e-03 1.175376e-03 1.058869e-03 9.428095e-04 8.282109e-04 7.178108e-04 6.152061e-04 5.216296e-04 4.361712e-04 3.598584e-04 2.968442e-04 2.492062e-04 2.122046e-04 1.784084e-04 1.471874e-04 1.266424e-04 1.232406e-04 1.312510e-04 1.364502e-04 1.312478e-04 1.232343e-04 1.266331e-04 1.471752e-04 1.783935e-04 2.121871e-04 2.491866e-04 2.968228e-04 3.598357e-04 4.361477e-04 5.216057e-04 6.151824e-04 7.177877e-04 8.281888e-04 9.427887e-04 1.058850e-03 1.175359e-03 1.290098e-03 1.397933e-03 1.493388e-03 1.573587e-03 1.636825e-03 1.679007e-03 1.694080e-03
  2.204652e-03 2.185110e-03 2.128893e-03 2.041171e-03 1.926741e-03 1.790178e-03 1.638061e-03 1.478725e-03 1.319192e-03 1.163817e-03 1.016368e-03 8.810418e-04 7.592206e-04 6.467637e-04 5.383878e-04 4.359315e-04 3.492561e-04 2.860898e-04 2.424379e-04 2.066486e-04 1.731725e-04 1.483587e-04 1.400972e-04 1.446538e-04 1.486702e-04 1.446508e-04 1.400913e-04 1.483499e-04 1.731608e-04 2.066343e-04 2.424210e-04 2.860706e-04 3.492350e-04 4.359090e-04 5.383643e-04 6.467398e-04 7.591967e-04 8.810185e-04 1.016346e-03 1.163796e-03 1.319172e-03 1.478708e-03 1.638046e-03 1.790165e-03 1.926731e-03 2.041163e-03 2.128888e-03 2.185108e-03 2.204652e-03
  2.954748e-03 2.927847e-03 2.850002e-03 2.727534e-03 2.566812e-03 2.374437e-03 2.159660e-03 1.934038e-03 1.708061e-03 1.489682e-03 1.286261e-03 1.104704e-03 9.466124e-04 8.048746e-04 6.697969e-04 5.407624e-04 4.290718e-04 3.461335e-04 2.900599e-04 2.474773e-04 2.086715e-04 1.768357e-04 1.599723e-04 1.571802e-04 1.582980e-04 1.571774e-04 1.599667e-04 1.768273e-04 2.086602e-04 2.474633e-04 2.900433e-04 3.461145e-04 4.290508e-04 5.407399e-04 6.697734e-04 8.048506e-04 9.465885e-04 1.104680e-03 1.286239e-03 1.489661e-03 1.708042e-03 1.934021e-03 2.159646e-03 2.374425e-03 2.566802e-03 2.727526e-03 2.849997e-03 2.927845e-03 2.954748e-03
  4.014889e-03 3.975975e-03 3.863996e-03 3.689496e-03 3.462712e-03 3.192944e-03 2.892306e-03 2.576338e-03 2.259657e-03 1.953106e-03 1.666216e-03 1.409115e-03 1.187799e-03 9.979927e-04 8.284282e-04 6.730850e-04 5.380201e-04 4.330534e-04 3.579972e-04 3.011059e-04 2.517509e-04 2.105779e-04 1.843412e-04 1.737797e-04 1.718015e-04 1.737770e-04 1.843358e-04 2.105697e-04 2.517398e-04 3.010921e-04 3.579807e-04 4.330345e-04 5.379992e-04 6.730625e-04 8.284047e-04 9.979688e-04 1.187775e-03 1.409092e-03 1.666195e-03 1.953086e-03 2.259638e-03 2.576322e-03 2.892291e-03 3.192932e-03 3.462702e-03 3.689488e-03 3.863991e-03 3.975972e-03 4.014889e-03
  5.505384e-03 5.446986e-03 5.279885e-03 5.022213e-03 4.691758e-03 4.303915e-03 3.877232e-03 3.434806e-03 2.997212e-03 2.576655e-03 2.180880e-03 1.820468e-03 1.507304e-03 1.244982e-03 1.025028e-03 8.359544e-04 6.742550e-04 5.433471e-04 4.430634e-04 3.651123e-04 3.007309e-04 2.491453e-04 2.148338e-04 1.982587e-04 1.939359e-04 1.982560e-04 2.148284e-04 2.491371e-04 3.007198e-04 3.650985e-04 4.430469e-04 5.433281e-04 6.742340e-04 8.359320e-04 1.025005e-03 1.244959e-03 1.507281e-03 1.820446e-03 2.180858e-03 2.576636e-03 2.997194e-03 3.434790e-03 3.877218e-03 4.303903e-03 4.691749e-03 5.022206e-03 5.279880e-03 5.446983e-03 5.505384e-03
  7.625187e-03 7.536838e-03 7.284198e-03 6.895695e-03 6.400753e-03 5.826331e-03 5.204248e-03 4.572326e-03 3.962318e-03 3.388831e-03 2.854483e-03 2.365009e-03 1.934368e-03 1.573687e-03 1.279696e-03 1.038118e-03 8.367907e-04 6.716236e-04 5.406190e-04 4.377341e-04 3.559071e-04 2.931784e-04 2.515168e-04 2.301503e-04 2.240599e-04 2.301476e-04 2.515112e-04 2.931700e-04 3.558958e-04 4.377200e-04 5.406022e-04 6.716045e-04 8.367698e-04 1.038095e-03 1.279673e-03 1.573664e-03 1.934345e-03 2.364987e-03 2.854463e-03 3.388812e-03 3.962301e-03 4.572310e-03 5.204235e-03 5.826320e-03 6.400744e-03 6.895688e-03 7.284193e-03 7.536836e-03 7.625187e-03
  1.064222e-02 1.051026e-02 1.013191e-02 9.548456e-03 8.805536e-03 7.948162e-03 7.029252e-03 6.109718e-03 5.240322e-03 4.443814e-03 3.719468e-03 3.064959e-03 2.489439e-03 2.004723e-03 1.609849e-03 1.289926e-03 1.028681e-03 8.172275e-04 6.504845e-04 5.209022e-04 4.200278e-04 3.440232e-04 2.932020e-04 2.661593e-04 2.580996e-04 2.661563e-04 2.931961e-04 3.440144e-04 4.200161e-04 5.208876e-04 6.504673e-04 8.172081e-04 1.028660e-03 1.289904e-03 1.609827e-03 2.004701e-03 2.489418e-03 3.064939e-03 3.719448e-03 4.443796e-03 5.240305e-03 6.109703e-03 7.029239e-03 7.948151e-03 8.805528e-03 9.548449e-03 1.013191e-02 1.051026e-02 1.064222e-02
  1.488978e-02 1.469417e-02 1.413198e-02 1.326327e-02 1.215885e-02 1.089154e-02 9.543566e-03 8.205118e-03 6.952138e-03 5.823312e-03 4.822267e-03 3.941669e-03 3.181227e-03 2.543591e-03 2.021673e-03 1.598047e-03 1.255983e-03 9.854675e-04 7.776499e-04 6.191602e-04 4.963657e-04 4.030198e-04 3.394509e-04 3.048003e-04 2.942595e-04 3.047972e-04 3.394447e-04 4.030105e-04 4.963534e-04 6.191451e-04 7.776323e-04 9.854480e-04 1.255962e-03 1.598026e-03 2.021651e-03 2.543569e-03 3.181207e-03 3.941649e-03 4.822249e-03 5.823295e-03 6.952123e-03 8.205104e-03 9.543554e-03 1.089153e-02 1.215884e-02 1.326326e-02 1.413197e-02 1.469417e-02 1.488978e-02
  2.084194e-02 2.054808e-02 1.970345e-02 1.840162e-02 1.675936e-02 1.489784e-02 1.294222e-02 1.101691e-02 9.223675e-03 7.620225e-03 6.222140e-03 5.024469e-03 4.018102e-03 3.188911e-03 2.513183e-03 1.964326e-03 1.524282e-03 1.183173e-03 9.276239e-04 7.355134e-04 5.859146e-04 4.706886e-04 3.917901e-04 3.490623e-04 3.362004e-04 3.490589e-04 3.917834e-04 4.706786e-04 5.859015e-04 7.354976e-04 9.276058e-04 1.183153e-03 1.524261e-03 1.964305e-03 2.513161e-03 3.188891e-03 4.018083e-03 5.024450e-03 6.222123e-03 7.620209e-03 9.223660e-03 1.101689e-02 1.294221e-02 1.489783e-02 1.675936e-02 1.840161e-02 1.970345e-02 2.054808e-02 2.084194e-02
  2.924571e-02 2.879397e-02 2.749759e-02 2.551085e-02 2.303569e-02 2.028198e-02 1.744718e-02 1.470152e-02 1.216992e-02 9.922342e-03 7.984108e-03 6.355550e-03 5.021118e-03 3.946815e-03 3.084251e-03 2.389120e-03 1.836452e-03 1.413848e-03 1.101917e-03 8.688319e-04 6.865754e-04 5.463719e-04 4.523989e-04 4.036781e-04 3.896530e-04 4.036744e-04 4.523917e-04 5.463612e-04 6.865616e-04 8.688154e-04 1.101899e-03 1.413827e-03 1.836431e-03 2.389099e-03 3.084230e-03 3.946795e-03 5.021099e-03 6.355532e-03 7.984091e-03 9.922327e-03 1.216990e-02 1.470151e-02 1.744717e-02 2.028197e-02 2.303569e-02 2.551085e-02 2.749758e-02 2.879397e-02 2.924571e-02
  4.118078e-02 4.047904e-02 3.846834e-02 3.540329e-02 3.162961e-02 2.751054e-02 2.336953e-02 1.945213e-02 1.590938e-02 1.280918e-02 1.016871e-02 7.981910e-03 6.222421e-03 4.834625e-03 3.741564e-03 2.874181e-03 2.192746e-03 1.676572e-03 1.297838e-03 1.015280e-03 7.951143e-04 6.286360e-04 5.214004e-04 4.693912e-04 4.554411e-04 4.693872e-04 5.213926e-04 6.286246e-04 7.950997e-04 1.015263e-03 1.297818e-03 1.676552e-03 2.192725e-03 2.874160e-03 3.741543e-03 4.834605e-03 6.222402e-03 7.981892e-03 1.016869e-02 1.280916e-02 1.590937e-02 1.945212e-02 2.336952e-02 2.751053e-02 3.162961e-02 3.540328e-02 3.846834e-02 4.047904e-02 4.118078e-02
  5.798133e-02 5.690023e-02 5.380601e-02 4.910704e-02 4.337121e-02 3.720279e-02 3.112962e-02 2.552475e-02 2.058264e-02 1.635518e-02 1.282073e-02 9.936707e-03 7.647385e-03 5.868665e-03 4.492646e-03 3.420913e-03 2.591263e-03 1.967723e-03 1.511115e-03 1.171291e-03 9.094785e-04 7.159768e-04 5.956353e-04 5.402376e-04 5.262131e-04 5.402333e-04 5.956269e-04 7.159647e-04 9.094631e-04 1.171274e-03 1.511096e-03 1.967703e-03 2.591242e-03 3.420893e-03 4.492625e-03 5.868646e-03 7.647367e-03 9.936690e-03 1.282071e-02 1.635516e-02 2.058263e-02 2.552474e-02 3.112961e-02 3.720279e-02 4.337120e-02 4.910704e-02 5.380601e-02 5.690023e-02 5.798133e-02
  8.115432e-02 7.951346e-02 7.482569e-02 6.773659e-02 5.914817e-02 5.002013e-02 4.118126e-02 3.319796e-02 2.633605e-02 2.062178e-02 1.595830e-02 1.222245e-02 9.295368e-03 7.047723e-03 5.335085e-03 4.025448e-03 3.027117e-03 2.282094e-03 1.737256e-03 1.334189e-03 1.028739e-03 8.070814e-04 6.704322e-04 6.071427e-04 5.908589e-04 6.071381e-04 6.704233e-04 8.070686e-04 1.028723e-03 1.334171e-03 1.737236e-03 2.282074e-03 3.027096e-03 4.025427e-03 5.335065e-03 7.047704e-03 9.295350e-03 1.222243e-02 1.595829e-02 2.062177e-02 2.633604e-02 3.319795e-02 4.118125e-02 5.002013e-02 5.914817e-02 6.773659e-02 7.482569e-02 7.951346e-02 8.115432e-02
  1.124609e-01 1.099926e-01 1.029680e-01 9.242261e-02 7.977923e-02 6.651591e-02 5.387342e-02 4.267031e-02 3.326061e-02 2.562866e-02 1.956170e-02 1.480524e-02 1.113378e-02 8.346557e-03 6.251074e-03 4.675291e-03 3.490993e-03 2.612257e-03 1.970476e-03 1.500193e-03 1.150989e-03 9.005137e-04 7.428161e-04 6.647221e-04 6.428342e-04 6.647172e-04 7.428067e-04 9.005002e-04 1.150972e-03 1.500174e-03 1.970455e-03 2.612236e-03 3.490971e-03 4.675270e-03 6.251054e-03 8.346538e-03 1.113376e-02 1.480522e-02 1.956168e-02 2.562865e-02 3.326060e-02 4.267030e-02 5.387342e-02 6.651591e-02 7.977923e-02 9.242261e-02 1.029680e-01 1.099926e-01 1.124609e-01
  1.539836e-01 1.502824e-01 1.398123e-01 1.242717e-01 1.059216e-01 8.700784e-02 6.931482e-02 5.394369e-02 4.131059e-02 3.130996e-02 2.355845e-02 1.761583e-02 1.310418e-02 9.720992e-03 7.209807e-03 5.349706e-03 3.968687e-03 2.947906e-03 2.202858e-03 1.663242e-03 1.272131e-03 9.943931e-04 8.130486e-04 7.147881e-04 6.845147e-04 7.147830e-04 8.130388e-04 9.943791e-04 1.272114e-03 1.663223e-03 2.202837e-03 2.947885e-03 3.968665e-03 5.349685e-03 7.209787e-03 9.720973e-03 1.310416e-02 1.761581e-02 2.355843e-02 3.130995e-02 4.131058e-02 5.394369e-02 6.931482e-02 8.700785e-02 1.059216e-01 1.242717e-01 1.398123e-01 1.502824e-01 1.539836e-01
  2.075717e-01 2.020748e-01 1.866351e-01 1.640276e-01 1.378266e-01 1.114031e-01 8.724392e-02 6.672461e-02 5.023246e-02 3.747054e-02 2.780370e-02 2.054683e-02 1.512751e-02 1.111433e-02 8.171772e-03 6.021588e-03 4.441784e-03 3.276655e-03 2.425849e-03 1.816867e-03 1.387255e-03 1.086416e-03 8.829290e-04 7.632517e-04 7.235632e-04 7.632465e-04 8.829188e-04 1.086401e-03 1.387237e-03 1.816847e-03 2.425828e-03 3.276633e-03 4.441762e-03 6.021567e-03 8.171751e-03 1.111431e-02 1.512749e-02 2.054681e-02 2.780368e-02 3.747053e-02 5.023246e-02 6.672461e-02 8.724393e-02 1.114031e-01 1.378266e-01 1.640276e-01 1.866351e-01 2.020748e-01 2.075717e-01
  2.731820e-01 2.652470e-01 2.431081e-01 2.111138e-01 1.747216e-01 1.388481e-01 1.068525e-01 8.033994e-02 5.952153e-02 4.376008e-02 3.206448e-02 2.344483e-02 1.710186e-02 1.245794e-02 9.090008e-03 6.658509e-03 4.888593e-03 3.585400e-03 2.632441e-03 1.956935e-03 1.492805e-03 1.173802e-03 9.523467e-04 8.135363e-04 7.650646e-04 8.135308e-04 9.523362e-04 1.173787e-03 1.492786e-03 1.956914e-03 2.632419e-03 3.585377e-03 4.888571e-03 6.658487e-03 9.089987e-03 1.245792e-02 1.710184e-02 2.344481e-02 3.206447e-02 4.376007e-02 5.952152e-02 8.033994e-02 1.068525e-01 1.388481e-01 1.747216e-01 2.111138e-01 2.431081e-01 2.652470e-01 2.731820e-01