CRYSTAL
PRIMVEC
  5.291772   0.000000   0.000000
  0.000000   5.291772   0.000000
  0.000000   0.000000   5.291772
PRIMCOORD
3 1
 1   0.000000   0.597970   0.767307
 1   0.000000   0.597970  -0.767307
 8   0.000000   0.000000   0.000000
BEGIN_BLOCK_DATAGRID_3D
 n
 BEGIN_DATAGRID_3D_n
  49 49 49
    0.000000   0.000000   0.000000
    5.291772   0.000000   0.000000
    0.000000   5.291772   0.000000
    0.000000   0.000000   5.291772
  1.014322e+00 1.090202e+00 1.132131e+00 9.356886e-01 6.192263e-01 3.688309e-01 2.164616e-01 1.254915e-01 7.278408e-02 4.345294e-02 2.627420e-02 1.606168e-02 9.861189e-03 6.198699e-03 3.903280e-03 2.490915e-03 1.553682e-03 9.924773e-04 6.031342e-04 3.755684e-04 2.003518e-04 1.152352e-04 4.096904e-05 2.244925e-05 -2.267597e-06 2.244925e-05 4.096904e-05 1.152352e-04 2.003518e-04 3.755684e-04 6.031342e-04 9.924773e-04 1.553682e-03 2.490915e-03 3.903280e-03 6.198699e-03 9.861189e-03 1.606168e-02 2.627420e-02 4.345294e-02 7.278408e-02 1.254915e-01 2.164616e-01 3.688309e-01 6.192263e-01 9.356886e-01 1.132131e+00 1.090202e+00 1.014322e+00
  9.758180e-01 1.027127e+00 1.035647e+00 8.475927e-01 5.664899e-01 3.442337e-01 2.051659e-01 1.201699e-01 7.029990e-02 4.227816e-02 2.568195e-02 1.578865e-02 9.722380e-03 6.140784e-03 3.863193e-03 2.476740e-03 1.538811e-03 9.917805e-04 5.960178e-04 3.773341e-04 1.948155e-04 1.175020e-04 3.603226e-05 2.457694e-05 -7.315119e-06 2.457694e-05 3.603226e-05 1.175020e-04 1.948155e-04 3.773341e-04 5.960178e-04 9.917805e-04 1.538811e-03 2.476740e-03 3.863193e-03 6.140784e-03 9.722380e-03 1.578865e-02 2.568195e-02 4.227816e-02 7.029990e-02 1.201699e-01 2.051659e-01 3.442337e-01 5.664899e-01 8.475927e-01 1.035647e+00 1.027127e+00 9.758180e-01
  9.102228e-01 9.149386e-01 8.583002e-01 6.802420e-01 4.619904e-01 2.910044e-01 1.786929e-01 1.066314e-01 6.380518e-02 3.890768e-02 2.395752e-02 1.482539e-02 9.248306e-03 5.853880e-03 3.727576e-03 2.373998e-03 1.501508e-03 9.513256e-04 5.910314e-04 3.569888e-04 1.991820e-04 1.043022e-04 4.363528e-05 1.386545e-05 1.010163e-06 1.386545e-05 4.363528e-05 1.043022e-04 1.991820e-04 3.569888e-04 5.910314e-04 9.513256e-04 1.501508e-03 2.373998e-03 3.727576e-03 5.853880e-03 9.248306e-03 1.482539e-02 2.395752e-02 3.890768e-02 6.380518e-02 1.066314e-01 1.786929e-01 2.910044e-01 4.619904e-01 6.802420e-01 8.583002e-01 9.149386e-01 9.102228e-01
  7.456759e-01 7.229838e-01 6.381642e-01 4.958744e-01 3.459270e-01 2.282329e-01 1.446183e-01 8.872649e-02 5.480780e-02 3.408342e-02 2.137742e-02 1.336322e-02 8.485696e-03 5.397368e-03 3.492229e-03 2.211135e-03 1.429942e-03 8.899713e-04 5.749301e-04 3.294749e-04 2.006918e-04 8.895147e-05 5.137481e-05 2.829952e-06 1.039495e-05 2.829952e-06 5.137481e-05 8.895147e-05 2.006918e-04 3.294749e-04 5.749301e-04 8.899713e-04 1.429942e-03 2.211135e-03 3.492229e-03 5.397368e-03 8.485696e-03 1.336322e-02 2.137742e-02 3.408342e-02 5.480780e-02 8.872649e-02 1.446183e-01 2.282329e-01 3.459270e-01 4.958744e-01 6.381642e-01 7.229838e-01 7.456759e-01
  5.256547e-01 5.013635e-01 4.332823e-01 3.393009e-01 2.465533e-01 1.692996e-01 1.102558e-01 7.041762e-02 4.488984e-02 2.869235e-02 1.826867e-02 1.166840e-02 7.489180e-03 4.865579e-03 3.144742e-03 2.036121e-03 1.300030e-03 8.402023e-04 5.222731e-04 3.215124e-04 1.755352e-04 9.587668e-05 3.635994e-05 1.454328e-05 -1.945629e-06 1.454328e-05 3.635994e-05 9.587668e-05 1.755352e-04 3.215124e-04 5.222731e-04 8.402023e-04 1.300030e-03 2.036121e-03 3.144742e-03 4.865579e-03 7.489180e-03 1.166840e-02 1.826867e-02 2.869235e-02 4.488984e-02 7.041762e-02 1.102558e-01 1.692996e-01 2.465533e-01 3.393009e-01 4.332823e-01 5.013635e-01 5.256547e-01
  3.384913e-01 3.231835e-01 2.819384e-01 2.270820e-01 1.704040e-01 1.198433e-01 8.107255e-02 5.388219e-02 3.553258e-02 2.325155e-02 1.512712e-02 9.842741e-03 6.449775e-03 4.239887e-03 2.779674e-03 1.807166e-03 1.173897e-03 7.572638e-04 4.812434e-04 2.905755e-04 1.661528e-04 8.509782e-05 3.823214e-05 1.011278e-05 2.648206e-06 1.011278e-05 3.823214e-05 8.509782e-05 1.661528e-04 2.905755e-04 4.812434e-04 7.572638e-04 1.173897e-03 1.807166e-03 2.779674e-03 4.239887e-03 6.449775e-03 9.842741e-03 1.512712e-02 2.325155e-02 3.553258e-02 5.388219e-02 8.107255e-02 1.198433e-01 1.704040e-01 2.270820e-01 2.819384e-01 3.231835e-01 3.384913e-01
  2.153064e-01 2.064471e-01 1.825242e-01 1.493534e-01 1.140405e-01 8.294735e-02 5.837895e-02 4.025094e-02 2.731424e-02 1.829742e-02 1.216740e-02 8.098030e-03 5.407427e-03 3.608609e-03 2.390074e-03 1.573478e-03 1.031968e-03 6.737361e-04 4.291085e-04 2.622651e-04 1.498363e-04 7.916137e-05 3.489645e-05 1.103121e-05 2.417747e-06 1.103121e-05 3.489645e-05 7.916137e-05 1.498363e-04 2.622651e-04 4.291085e-04 6.737361e-04 1.031968e-03 1.573478e-03 2.390074e-03 3.608609e-03 5.407427e-03 8.098030e-03 1.216740e-02 1.829742e-02 2.731424e-02 4.025094e-02 5.837895e-02 8.294735e-02 1.140405e-01 1.493534e-01 1.825242e-01 2.064471e-01 2.153064e-01
  1.352690e-01 1.300692e-01 1.158216e-01 9.632547e-02 7.582264e-02 5.704310e-02 4.154648e-02 2.948810e-02 2.050420e-02 1.405289e-02 9.573335e-03 6.517581e-03 4.433953e-03 2.997876e-03 2.010979e-03 1.340822e-03 8.918826e-04 5.867606e-04 3.766548e-04 2.309661e-04 1.341849e-04 7.129762e-05 3.280034e-05 1.056049e-05 3.716807e-06 1.056049e-05 3.280034e-05 7.129762e-05 1.341849e-04 2.309661e-04 3.766548e-04 5.867606e-04 8.918826e-04 1.340822e-03 2.010979e-03 2.997876e-03 4.433953e-03 6.517581e-03 9.573335e-03 1.405289e-02 2.050420e-02 2.948810e-02 4.154648e-02 5.704310e-02 7.582264e-02 9.632547e-02 1.158216e-01 1.300692e-01 1.352690e-01
  8.443172e-02 8.154251e-02 7.371266e-02 6.269661e-02 5.054883e-02 3.912300e-02 2.922577e-02 2.122642e-02 1.509395e-02 1.060087e-02 7.402157e-03 5.150720e-03 3.559972e-03 2.439038e-03 1.658064e-03 1.123721e-03 7.571657e-04 5.030225e-04 3.240326e-04 2.008038e-04 1.176687e-04 6.404463e-05 2.973857e-05 1.085677e-05 4.297173e-06 1.085677e-05 2.973857e-05 6.404463e-05 1.176687e-04 2.008038e-04 3.240326e-04 5.030225e-04 7.571657e-04 1.123721e-03 1.658064e-03 2.439038e-03 3.559972e-03 5.150720e-03 7.402157e-03 1.060087e-02 1.509395e-02 2.122642e-02 2.922577e-02 3.912300e-02 5.054883e-02 6.269661e-02 7.371266e-02 8.154251e-02 8.443172e-02
  5.355898e-02 5.193991e-02 4.738316e-02 4.092072e-02 3.372897e-02 2.660898e-02 2.028455e-02 1.504625e-02 1.095807e-02 7.892870e-03 5.644444e-03 4.000791e-03 2.805355e-03 1.947307e-03 1.345664e-03 9.268008e-04 6.331425e-04 4.231996e-04 2.747203e-04 1.715795e-04 1.025416e-04 5.638530e-05 2.727384e-05 1.055976e-05 5.480488e-06 1.055976e-05 2.727384e-05 5.638530e-05 1.025416e-04 1.715795e-04 2.747203e-04 4.231996e-04 6.331425e-04 9.268008e-04 1.345664e-03 1.947307e-03 2.805355e-03 4.000791e-03 5.644444e-03 7.892870e-03 1.095807e-02 1.504625e-02 2.028455e-02 2.660898e-02 3.372897e-02 4.092072e-02 4.738316e-02 5.193991e-02 5.355898e-02
  3.404686e-02 3.310323e-02 3.052160e-02 2.672273e-02 2.228626e-02 1.790411e-02 1.391611e-02 1.056224e-02 7.884589e-03 5.818708e-03 4.245042e-03 3.057082e-03 2.172554e-03 1.532030e-03 1.076777e-03 7.539376e-04 5.199772e-04 3.501453e-04 2.287265e-04 1.452827e-04 8.808174e-05 4.964528e-05 2.437858e-05 1.065249e-05 6.037021e-06 1.065249e-05 2.437858e-05 4.964528e-05 8.808174e-05 1.452827e-04 2.287265e-04 3.501453e-04 5.199772e-04 7.539376e-04 1.076777e-03 1.532030e-03 2.172554e-03 3.057082e-03 4.245042e-03 5.818708e-03 7.884589e-03 1.056224e-02 1.391611e-02 1.790411e-02 2.228626e-02 2.672273e-02 3.052160e-02 3.310323e-02 3.404686e-02
  2.161472e-02 2.107640e-02 1.950870e-02 1.723663e-02 1.464196e-02 1.196091e-02 9.501632e-03 7.380891e-03 5.639036e-03 4.244306e-03 3.147629e-03 2.298456e-03 1.659151e-03 1.190146e-03 8.515863e-04 6.036800e-04 4.199579e-04 2.842462e-04 1.880967e-04 1.212843e-04 7.525619e-05 4.283766e-05 2.186035e-05 1.008645e-05 6.656758e-06 1.008645e-05 2.186035e-05 4.283766e-05 7.525619e-05 1.212843e-04 1.880967e-04 2.842462e-04 4.199579e-04 6.036800e-04 8.515863e-04 1.190146e-03 1.659151e-03 2.298456e-03 3.147629e-03 4.244306e-03 5.639036e-03 7.380891e-03 9.501632e-03 1.196091e-02 1.464196e-02 1.723663e-02 1.950870e-02 2.107640e-02 2.161472e-02
  1.363142e-02 1.331437e-02 1.246099e-02 1.116337e-02 9.585200e-03 7.995513e-03 6.482781e-03 5.142848e-03 4.001107e-03 3.059512e-03 2.300453e-03 1.706123e-03 1.252761e-03 9.155058e-04 6.646208e-04 4.762280e-04 3.332165e-04 2.278172e-04 1.526300e-04 1.004894e-04 6.311269e-05 3.664648e-05 1.892051e-05 9.594368e-06 6.556287e-06 9.594368e-06 1.892051e-05 3.664648e-05 6.311269e-05 1.004894e-04 1.526300e-04 2.278172e-04 3.332165e-04 4.762280e-04 6.646208e-04 9.155058e-04 1.252761e-03 1.706123e-03 2.300453e-03 3.059512e-03 4.001107e-03 5.142848e-03 6.482781e-03 7.995513e-03 9.585200e-03 1.116337e-02 1.246099e-02 1.331437e-02 1.363142e-02
  8.665516e-03 8.493692e-03 7.965421e-03 7.197724e-03 6.314558e-03 5.344913e-03 4.413181e-03 3.557161e-03 2.809124e-03 2.177426e-03 1.662965e-03 1.254494e-03 9.385971e-04 6.965954e-04 5.119848e-04 3.696006e-04 2.611801e-04 1.805180e-04 1.230927e-04 8.199800e-05 5.229096e-05 3.048561e-05 1.637725e-05 8.676746e-06 6.539083e-06 8.676746e-06 1.637725e-05 3.048561e-05 5.229096e-05 8.199800e-05 1.230927e-04 1.805180e-04 2.611801e-04 3.696006e-04 5.119848e-04 6.965954e-04 9.385971e-04 1.254494e-03 1.662965e-03 2.177426e-03 2.809124e-03 3.557161e-03 4.413181e-03 5.344913e-03 6.314558e-03 7.197724e-03 7.965421e-03 8.493692e-03 8.665516e-03
  5.506211e-03 5.400141e-03 5.130630e-03 4.698383e-03 4.135901e-03 3.560510e-03 2.977887e-03 2.434127e-03 1.948231e-03 1.534501e-03 1.192352e-03 9.167609e-04 6.968376e-04 5.238899e-04 3.882015e-04 2.831380e-04 2.023465e-04 1.422371e-04 9.809800e-05 6.614787e-05 4.226847e-05 2.518260e-05 1.384498e-05 8.045476e-06 6.155266e-06 8.045476e-06 1.384498e-05 2.518260e-05 4.226847e-05 6.614787e-05 9.809800e-05 1.422371e-04 2.023465e-04 2.831380e-04 3.882015e-04 5.238899e-04 6.968376e-04 9.167609e-04 1.192352e-03 1.534501e-03 1.948231e-03 2.434127e-03 2.977887e-03 3.560510e-03 4.135901e-03 4.698383e-03 5.130630e-03 5.400141e-03 5.506211e-03
  3.525643e-03 3.470433e-03 3.281503e-03 3.012220e-03 2.709708e-03 2.348016e-03 1.990235e-03 1.647584e-03 1.339772e-03 1.073161e-03 8.498256e-04 6.639434e-04 5.114893e-04 3.877475e-04 2.901555e-04 2.139630e-04 1.555620e-04 1.107826e-04 7.732273e-05 5.216964e-05 3.375635e-05 2.038397e-05 1.187551e-05 7.156725e-06 5.855309e-06 7.156725e-06 1.187551e-05 2.038397e-05 3.375635e-05 5.216964e-05 7.732273e-05 1.107826e-04 1.555620e-04 2.139630e-04 2.901555e-04 3.877475e-04 5.114893e-04 6.639434e-04 8.498256e-04 1.073161e-03 1.339772e-03 1.647584e-03 1.990235e-03 2.348016e-03 2.709708e-03 3.012220e-03 3.281503e-03 3.470433e-03 3.525643e-03
  2.227956e-03 2.189656e-03 2.105862e-03 1.959090e-03 1.748229e-03 1.541054e-03 1.320391e-03 1.109644e-03 9.159013e-04 7.464177e-04 5.999034e-04 4.751224e-04 3.692969e-04 2.827379e-04 2.137216e-04 1.602111e-04 1.181462e-04 8.532724e-05 5.968942e-05 4.057842e-05 2.640995e-05 1.655319e-05 9.893827e-06 6.326276e-06 5.069948e-06 6.326276e-06 9.893827e-06 1.655319e-05 2.640995e-05 4.057842e-05 5.968942e-05 8.532724e-05 1.181462e-04 1.602111e-04 2.137216e-04 2.827379e-04 3.692969e-04 4.751224e-04 5.999034e-04 7.464177e-04 9.159013e-04 1.109644e-03 1.320391e-03 1.541054e-03 1.748229e-03 1.959090e-03 2.105862e-03 2.189656e-03 2.227956e-03
  1.419508e-03 1.402268e-03 1.329261e-03 1.232414e-03 1.136486e-03 1.003999e-03 8.735211e-04 7.435138e-04 6.230779e-04 5.140759e-04 4.184743e-04 3.345101e-04 2.629105e-04 2.033928e-04 1.561941e-04 1.187155e-04 8.889463e-05 6.454945e-05 4.551207e-05 3.100083e-05 2.064624e-05 1.314191e-05 8.180191e-06 5.122726e-06 4.223372e-06 5.122726e-06 8.180191e-06 1.314191e-05 2.064624e-05 3.100083e-05 4.551207e-05 6.454945e-05 8.889463e-05 1.187155e-04 1.561941e-04 2.033928e-04 2.629105e-04 3.345101e-04 4.184743e-04 5.140759e-04 6.230779e-04 7.435138e-04 8.735211e-04 1.003999e-03 1.136486e-03 1.232414e-03 1.329261e-03 1.402268e-03 1.419508e-03
  8.778155e-04 8.638347e-04 8.437868e-04 7.987315e-04 7.182292e-04 6.502799e-04 5.712137e-04 4.934694e-04 4.180896e-04 3.493015e-04 2.870405e-04 2.324288e-04 1.849104e-04 1.455139e-04 1.133038e-04 8.744809e-05 6.592990e-05 4.835399e-05 3.420526e-05 2.369615e-05 1.588411e-05 1.036344e-05 6.349647e-06 4.039285e-06 3.159205e-06 4.039285e-06 6.349647e-06 1.036344e-05 1.588411e-05 2.369615e-05 3.420526e-05 4.835399e-05 6.592990e-05 8.744809e-05 1.133038e-04 1.455139e-04 1.849104e-04 2.324288e-04 2.870405e-04 3.493015e-04 4.180896e-04 4.934694e-04 5.712137e-04 6.502799e-04 7.182292e-04 7.987315e-04 8.437868e-04 8.638347e-04 8.778155e-04
  5.470845e-04 5.427094e-04 5.124341e-04 4.779033e-04 4.563611e-04 4.097862e-04 3.662828e-04 3.198131e-04 2.749286e-04 2.321823e-04 1.937768e-04 1.591820e-04 1.291914e-04 1.032825e-04 8.178033e-05 6.358603e-05 4.845573e-05 3.571923e-05 2.570820e-05 1.790973e-05 1.218705e-05 7.793848e-06 4.810521e-06 2.921222e-06 2.388236e-06 2.921222e-06 4.810521e-06 7.793848e-06 1.218705e-05 1.790973e-05 2.570820e-05 3.571923e-05 4.845573e-05 6.358603e-05 8.178033e-05 1.032825e-04 1.291914e-04 1.591820e-04 1.937768e-04 2.321823e-04 2.749286e-04 3.198131e-04 3.662828e-04 4.097862e-04 4.563611e-04 4.779033e-04 5.124341e-04 5.427094e-04 5.470845e-04
  3.161653e-04 3.113171e-04 3.123193e-04 3.027960e-04 2.696696e-04 2.523360e-04 2.269226e-04 2.016626e-04 1.755066e-04 1.510447e-04 1.281398e-04 1.077193e-04 8.903589e-05 7.263684e-05 5.809121e-05 4.573808e-05 3.505360e-05 2.630621e-05 1.910171e-05 1.353550e-05 9.049564e-06 5.755244e-06 3.375593e-06 2.131344e-06 1.657636e-06 2.131344e-06 3.375593e-06 5.755244e-06 9.049564e-06 1.353550e-05 1.910171e-05 2.630621e-05 3.505360e-05 4.573808e-05 5.809121e-05 7.263684e-05 8.903589e-05 1.077193e-04 1.281398e-04 1.510447e-04 1.755066e-04 2.016626e-04 2.269226e-04 2.523360e-04 2.696696e-04 3.027960e-04 3.123193e-04 3.113171e-04 3.161653e-04
  1.866236e-04 1.860177e-04 1.715653e-04 1.588094e-04 1.626680e-04 1.472077e-04 1.361178e-04 1.225709e-04 1.092346e-04 9.575452e-05 8.345032e-05 7.159708e-05 6.062895e-05 5.014251e-05 4.081300e-05 3.242286e-05 2.533350e-05 1.919697e-05 1.422620e-05 1.001743e-05 6.708680e-06 4.061700e-06 2.376767e-06 1.385942e-06 1.159356e-06 1.385942e-06 2.376767e-06 4.061700e-06 6.708680e-06 1.001743e-05 1.422620e-05 1.919697e-05 2.533350e-05 3.242286e-05 4.081300e-05 5.014251e-05 6.062895e-05 7.159708e-05 8.345032e-05 9.575452e-05 1.092346e-04 1.225709e-04 1.361178e-04 1.472077e-04 1.626680e-04 1.588094e-04 1.715653e-04 1.860177e-04 1.866236e-04
  8.845649e-05 8.736122e-05 9.462146e-05 9.744124e-05 8.172103e-05 8.248978e-05 7.700810e-05 7.194877e-05 6.571081e-05 5.975830e-05 5.347561e-05 4.736468e-05 4.085252e-05 3.461523e-05 2.860231e-05 2.331689e-05 1.844708e-05 1.426146e-05 1.053080e-05 7.498390e-06 4.907500e-06 2.989400e-06 1.584771e-06 8.905856e-07 6.125025e-07 8.905856e-07 1.584771e-06 2.989400e-06 4.907500e-06 7.498390e-06 1.053080e-05 1.426146e-05 1.844708e-05 2.331689e-05 2.860231e-05 3.461523e-05 4.085252e-05 4.736468e-05 5.347561e-05 5.975830e-05 6.571081e-05 7.194877e-05 7.700810e-05 8.248978e-05 8.172103e-05 9.744124e-05 9.462146e-05 8.736122e-05 8.845649e-05
  4.386300e-05 4.395860e-05 3.603989e-05 3.125037e-05 4.403952e-05 4.015839e-05 4.103026e-05 3.996519e-05 3.882366e-05 3.684799e-05 3.470282e-05 3.167574e-05 2.829248e-05 2.450272e-05 2.097369e-05 1.746368e-05 1.417803e-05 1.091961e-05 8.109761e-06 5.668570e-06 3.793682e-06 2.231790e-06 1.165806e-06 4.465772e-07 2.677044e-07 4.465772e-07 1.165806e-06 2.231790e-06 3.793682e-06 5.668570e-06 8.109761e-06 1.091961e-05 1.417803e-05 1.746368e-05 2.097369e-05 2.450272e-05 2.829248e-05 3.167574e-05 3.470282e-05 3.684799e-05 3.882366e-05 3.996519e-05 4.103026e-05 4.015839e-05 4.403952e-05 3.125037e-05 3.603989e-05 4.395860e-05 4.386300e-05
  5.740033e-06 6.543460e-06 1.508583e-05 2.213598e-05 1.270925e-05 1.961636e-05 2.104538e-05 2.299043e-05 2.383759e-05 2.446479e-05 2.410356e-05 2.309705e-05 2.116673e-05 1.905249e-05 1.672136e-05 1.441705e-05 1.178570e-05 9.166945e-06 6.667515e-06 4.700419e-06 3.075522e-06 1.862505e-06 8.560290e-07 2.721632e-07 1.605103e-08 2.721632e-07 8.560290e-07 1.862505e-06 3.075522e-06 4.700419e-06 6.667515e-06 9.166945e-06 1.178570e-05 1.441705e-05 1.672136e-05 1.905249e-05 2.116673e-05 2.309705e-05 2.410356e-05 2.446479e-05 2.383759e-05 2.299043e-05 2.104538e-05 1.961636e-05 1.270925e-05 2.213598e-05 1.508583e-05 6.543460e-06 5.740033e-06
  7.339930e-06 6.904700e-06 1.571177e-06 -1.247614e-06 1.345315e-05 1.238936e-05 1.605358e-05 1.806374e-05 1.991871e-05 2.084970e-05 2.123999e-05 2.050758e-05 1.918546e-05 1.734850e-05 1.551913e-05 1.341382e-05 1.114749e-05 8.646006e-06 6.396486e-06 4.438680e-06 2.940942e-06 1.681523e-06 8.049173e-07 2.095814e-07 5.867056e-08 2.095814e-07 8.049173e-07 1.681523e-06 2.940942e-06 4.438680e-06 6.396486e-06 8.646006e-06 1.114749e-05 1.341382e-05 1.551913e-05 1.734850e-05 1.918546e-05 2.050758e-05 2.123999e-05 2.084970e-05 1.991871e-05 1.806374e-05 1.605358e-05 1.238936e-05 1.345315e-05 -1.247614e-06 1.571177e-06 6.904700e-06 7.339930e-06
  8.057500e-06 9.901844e-06 1.736783e-05 2.451803e-05 1.526419e-05 2.194745e-05 2.329421e-05 2.507269e-05 2.583801e-05 2.625034e-05 2.567713e-05 2.438670e-05 2.220262e-05 1.977548e-05 1.716046e-05 1.463097e-05 1.197964e-05 9.472960e-06 7.104195e-06 5.099531e-06 3.317201e-06 1.934088e-06 9.123032e-07 4.064229e-07 2.144340e-07 4.064229e-07 9.123032e-07 1.934088e-06 3.317201e-06 5.099531e-06 7.104195e-06 9.472960e-06 1.197964e-05 1.463097e-05 1.716046e-05 1.977548e-05 2.220262e-05 2.438670e-05 2.567713e-05 2.625034e-05 2.583801e-05 2.507269e-05 2.329421e-05 2.194745e-05 1.526419e-05 2.451803e-05 1.736783e-05 9.901844e-06 8.057500e-06
  4.878469e-05 4.697032e-05 4.154447e-05 3.662881e-05 4.870940e-05 4.464585e-05 4.510338e-05 4.395609e-05 4.257866e-05 4.046899e-05 3.800144e-05 3.469934e-05 3.088165e-05 2.658850e-05 2.237469e-05 1.830065e-05 1.469376e-05 1.150422e-05 8.854349e-06 6.470213e-06 4.381177e-06 2.579862e-06 1.387656e-06 7.318813e-07 5.800260e-07 7.318813e-07 1.387656e-06 2.579862e-06 4.381177e-06 6.470213e-06 8.854349e-06 1.150422e-05 1.469376e-05 1.830065e-05 2.237469e-05 2.658850e-05 3.088165e-05 3.469934e-05 3.800144e-05 4.046899e-05 4.257866e-05 4.395609e-05 4.510338e-05 4.464585e-05 4.870940e-05 3.662881e-05 4.154447e-05 4.697032e-05 4.878469e-05
  9.985399e-05 1.017927e-04 1.054742e-04 1.082019e-04 9.254723e-05 9.215655e-05 8.585590e-05 7.970939e-05 7.276508e-05 6.594176e-05 5.905535e-05 5.231860e-05 4.536127e-05 3.843798e-05 3.158535e-05 2.527033e-05 1.967347e-05 1.514034e-05 1.149184e-05 8.541550e-06 5.915672e-06 3.745609e-06 2.155311e-06 1.328254e-06 1.050564e-06 1.328254e-06 2.155311e-06 3.745609e-06 5.915672e-06 8.541550e-06 1.149184e-05 1.514034e-05 1.967347e-05 2.527033e-05 3.158535e-05 3.843798e-05 4.536127e-05 5.231860e-05 5.905535e-05 6.594176e-05 7.276508e-05 7.970939e-05 8.585590e-05 9.215655e-05 9.254723e-05 1.082019e-04 1.054742e-04 1.017927e-04 9.985399e-05
  2.138592e-04 2.091995e-04 1.993318e-04 1.855523e-04 1.869643e-04 1.696529e-04 1.558056e-04 1.398119e-04 1.235991e-04 1.076315e-04 9.290118e-05 7.935964e-05 6.712193e-05 5.584772e-05 4.555966e-05 3.610130e-05 2.779341e-05 2.083522e-05 1.543981e-05 1.125233e-05 7.959782e-06 5.265765e-06 3.317580e-06 2.135012e-06 1.780964e-06 2.135012e-06 3.317580e-06 5.265765e-06 7.959782e-06 1.125233e-05 1.543981e-05 2.083522e-05 2.779341e-05 3.610130e-05 4.555966e-05 5.584772e-05 6.712193e-05 7.935964e-05 9.290118e-05 1.076315e-04 1.235991e-04 1.398119e-04 1.558056e-04 1.696529e-04 1.869643e-04 1.855523e-04 1.993318e-04 2.091995e-04 2.138592e-04
  3.662701e-04 3.664083e-04 3.607177e-04 3.499860e-04 3.153322e-04 2.940689e-04 2.647919e-04 2.346762e-04 2.037854e-04 1.739434e-04 1.460875e-04 1.211716e-04 9.938229e-05 8.089148e-05 6.514805e-05 5.157125e-05 3.959508e-05 2.939834e-05 2.120520e-05 1.509342e-05 1.056693e-05 7.220640e-06 4.755944e-06 3.258268e-06 2.728452e-06 3.258268e-06 4.755944e-06 7.220640e-06 1.056693e-05 1.509342e-05 2.120520e-05 2.939834e-05 3.959508e-05 5.157125e-05 6.514805e-05 8.089148e-05 9.938229e-05 1.211716e-04 1.460875e-04 1.739434e-04 2.037854e-04 2.346762e-04 2.647919e-04 2.940689e-04 3.153322e-04 3.499860e-04 3.607177e-04 3.664083e-04 3.662701e-04
  6.377476e-04 6.264953e-04 6.014337e-04 5.623654e-04 5.336780e-04 4.806631e-04 4.297299e-04 3.765395e-04 3.240853e-04 2.737321e-04 2.269735e-04 1.846048e-04 1.477722e-04 1.170914e-04 9.243150e-05 7.238626e-05 5.555113e-05 4.116009e-05 2.944138e-05 2.052326e-05 1.415103e-05 9.625649e-06 6.511779e-06 4.589057e-06 3.953655e-06 4.589057e-06 6.511779e-06 9.625649e-06 1.415103e-05 2.052326e-05 2.944138e-05 4.116009e-05 5.555113e-05 7.238626e-05 9.243150e-05 1.170914e-04 1.477722e-04 1.846048e-04 2.269735e-04 2.737321e-04 3.240853e-04 3.765395e-04 4.297299e-04 4.806631e-04 5.336780e-04 5.623654e-04 6.014337e-04 6.264953e-04 6.377476e-04
  1.054328e-03 1.045786e-03 1.010698e-03 9.554024e-04 8.618517e-04 7.772793e-04 6.825240e-04 5.893060e-04 5.003608e-04 4.183351e-04 3.437791e-04 2.769193e-04 2.183690e-04 1.695036e-04 1.305757e-04 1.002300e-04 7.604122e-05 5.629240e-05 4.028868e-05 2.797642e-05 1.897073e-05 1.269600e-05 8.516514e-06 6.128189e-06 5.330714e-06 6.128189e-06 8.516514e-06 1.269600e-05 1.897073e-05 2.797642e-05 4.028868e-05 5.629240e-05 7.604122e-05 1.002300e-04 1.305757e-04 1.695036e-04 2.183690e-04 2.769193e-04 3.437791e-04 4.183351e-04 5.003608e-04 5.893060e-04 6.825240e-04 7.772793e-04 8.618517e-04 9.554024e-04 1.010698e-03 1.045786e-03 1.054328e-03
  1.777220e-03 1.746623e-03 1.669584e-03 1.548299e-03 1.419411e-03 1.251147e-03 1.082677e-03 9.170919e-04 7.637414e-04 6.272584e-04 5.085370e-04 4.056750e-04 3.173026e-04 2.433496e-04 1.840241e-04 1.379428e-04 1.025395e-04 7.511178e-05 5.383626e-05 3.748108e-05 2.525860e-05 1.652903e-05 1.087707e-05 7.796614e-06 6.853500e-06 7.796614e-06 1.087707e-05 1.652903e-05 2.525860e-05 3.748108e-05 5.383626e-05 7.511178e-05 1.025395e-04 1.379428e-04 1.840241e-04 2.433496e-04 3.173026e-04 4.056750e-04 5.085370e-04 6.272584e-04 7.637414e-04 9.170919e-04 1.082677e-03 1.251147e-03 1.419411e-03 1.548299e-03 1.669584e-03 1.746623e-03 1.777220e-03
  2.905550e-03 2.867965e-03 2.744450e-03 2.552999e-03 2.283593e-03 2.006762e-03 1.712807e-03 1.427626e-03 1.165320e-03 9.362427e-04 7.432630e-04 5.834860e-04 4.517499e-04 3.439929e-04 2.573752e-04 1.895129e-04 1.376772e-04 9.899376e-05 7.039641e-05 4.908680e-05 3.299940e-05 2.128275e-05 1.365313e-05 9.654948e-06 8.450244e-06 9.654948e-06 1.365313e-05 2.128275e-05 3.299940e-05 4.908680e-05 7.039641e-05 9.899376e-05 1.376772e-04 1.895129e-04 2.573752e-04 3.439929e-04 4.517499e-04 5.834860e-04 7.432630e-04 9.362427e-04 1.165320e-03 1.427626e-03 1.712807e-03 2.006762e-03 2.283593e-03 2.552999e-03 2.744450e-03 2.867965e-03 2.905550e-03
  4.773859e-03 4.685976e-03 4.449284e-03 4.084624e-03 3.664024e-03 3.173208e-03 2.681127e-03 2.206927e-03 1.773794e-03 1.397201e-03 1.084120e-03 8.322950e-04 6.335527e-04 4.775108e-04 3.547971e-04 2.585357e-04 1.846126e-04 1.299661e-04 9.091431e-05 6.290053e-05 4.217415e-05 2.695069e-05 1.694800e-05 1.166781e-05 1.010414e-05 1.166781e-05 1.694800e-05 2.695069e-05 4.217415e-05 6.290053e-05 9.091431e-05 1.299661e-04 1.846126e-04 2.585357e-04 3.547971e-04 4.775108e-04 6.335527e-04 8.322950e-04 1.084120e-03 1.397201e-03 1.773794e-03 2.206927e-03 2.681127e-03 3.173208e-03 3.664024e-03 4.084624e-03 4.449284e-03 4.685976e-03 4.773859e-03
  7.867618e-03 7.724871e-03 7.297968e-03 6.653070e-03 5.834804e-03 4.991374e-03 4.151485e-03 3.369814e-03 2.671882e-03 2.072538e-03 1.577360e-03 1.183755e-03 8.811095e-04 6.527771e-04 4.799752e-04 3.472661e-04 2.454386e-04 1.699320e-04 1.164632e-04 7.926041e-05 5.265899e-05 3.345261e-05 2.067869e-05 1.378554e-05 1.167961e-05 1.378554e-05 2.067869e-05 3.345261e-05 5.265899e-05 7.926041e-05 1.164632e-04 1.699320e-04 2.454386e-04 3.472661e-04 4.799752e-04 6.527771e-04 8.811095e-04 1.183755e-03 1.577360e-03 2.072538e-03 2.671882e-03 3.369814e-03 4.151485e-03 4.991374e-03 5.834804e-03 6.653070e-03 7.297968e-03 7.724871e-03 7.867618e-03
  1.328422e-02 1.298376e-02 1.214963e-02 1.089886e-02 9.447613e-03 7.893928e-03 6.421179e-03 5.102014e-03 3.972263e-03 3.033464e-03 2.272728e-03 1.673689e-03 1.218186e-03 8.825006e-04 6.378721e-04 4.569229e-04 3.208225e-04 2.197943e-04 1.479348e-04 9.851269e-05 6.440926e-05 4.054127e-05 2.469754e-05 1.585906e-05 1.308940e-05 1.585906e-05 2.469754e-05 4.054127e-05 6.440926e-05 9.851269e-05 1.479348e-04 2.197943e-04 3.208225e-04 4.569229e-04 6.378721e-04 8.825006e-04 1.218186e-03 1.673689e-03 2.272728e-03 3.033464e-03 3.972263e-03 5.102014e-03 6.421179e-03 7.893928e-03 9.447613e-03 1.089886e-02 1.214963e-02 1.298376e-02 1.328422e-02
  2.252812e-02 2.199235e-02 2.045198e-02 1.816167e-02 1.540350e-02 1.260803e-02 9.987270e-03 7.716979e-03 5.853135e-03 4.374680e-03 3.222459e-03 2.336089e-03 1.668834e-03 1.182127e-03 8.358633e-04 5.896005e-04 4.107692e-04 2.796831e-04 1.857676e-04 1.210837e-04 7.744613e-05 4.804889e-05 2.877700e-05 1.781551e-05 1.425467e-05 1.781551e-05 2.877700e-05 4.804889e-05 7.744613e-05 1.210837e-04 1.857676e-04 2.796831e-04 4.107692e-04 5.896005e-04 8.358633e-04 1.182127e-03 1.668834e-03 2.336089e-03 3.222459e-03 4.374680e-03 5.853135e-03 7.716979e-03 9.987270e-03 1.260803e-02 1.540350e-02 1.816167e-02 2.045198e-02 2.199235e-02 2.252812e-02
  3.839211e-02 3.732826e-02 3.437098e-02 3.005891e-02 2.514121e-02 2.012625e-02 1.555019e-02 1.167092e-02 8.582992e-03 6.234373e-03 4.489819e-03 3.200686e-03 2.251604e-03 1.565125e-03 1.082440e-03 7.487229e-04 5.157275e-04 3.492049e-04 2.300139e-04 1.472288e-04 9.198202e-05 5.587480e-05 3.279767e-05 1.954176e-05 1.518567e-05 1.954176e-05 3.279767e-05 5.587480e-05 9.198202e-05 1.472288e-04 2.300139e-04 3.492049e-04 5.157275e-04 7.487229e-04 1.082440e-03 1.565125e-03 2.251604e-03 3.200686e-03 4.489819e-03 6.234373e-03 8.582992e-03 1.167092e-02 1.555019e-02 2.012625e-02 2.514121e-02 3.005891e-02 3.437098e-02 3.732826e-02 3.839211e-02
  6.597238e-02 6.388517e-02 5.810211e-02 4.989327e-02 4.066573e-02 3.180594e-02 2.396807e-02 1.751010e-02 1.249356e-02 8.791686e-03 6.154049e-03 4.294846e-03 2.975297e-03 2.037351e-03 1.382600e-03 9.371847e-04 6.358900e-04 4.274392e-04 2.798401e-04 1.768162e-04 1.080436e-04 6.407338e-05 3.659744e-05 2.096697e-05 1.574178e-05 2.096697e-05 3.659744e-05 6.407338e-05 1.080436e-04 1.768162e-04 2.798401e-04 4.274392e-04 6.358900e-04 9.371847e-04 1.382600e-03 2.037351e-03 2.975297e-03 4.294846e-03 6.154049e-03 8.791686e-03 1.249356e-02 1.751010e-02 2.396807e-02 3.180594e-02 4.066573e-02 4.989327e-02 5.810211e-02 6.388517e-02 6.597238e-02
  1.162440e-01 1.118171e-01 9.977814e-02 8.322101e-02 6.575074e-02 4.966819e-02 3.629374e-02 2.579039e-02 1.789834e-02 1.222012e-02 8.295410e-03 5.641530e-03 3.838483e-03 2.593257e-03 1.733863e-03 1.153976e-03 7.699982e-04 5.122210e-04 3.334682e-04 2.087540e-04 1.253829e-04 7.247852e-05 4.013953e-05 2.185928e-05 1.583102e-05 2.185928e-05 4.013953e-05 7.247852e-05 1.253829e-04 2.087540e-04 3.334682e-04 5.122210e-04 7.699982e-04 1.153976e-03 1.733863e-03 2.593257e-03 3.838483e-03 5.641530e-03 8.295410e-03 1.222012e-02 1.789834e-02 2.579039e-02 3.629374e-02 4.966819e-02 6.575074e-02 8.322101e-02 9.977814e-02 1.118171e-01 1.162440e-01
  2.050162e-01 1.962683e-01 1.725710e-01 1.401770e-01 1.062787e-01 7.686693e-02 5.389576e-02 3.702578e-02 2.499127e-02 1.660829e-02 1.095327e-02 7.246795e-03 4.828012e-03 3.216713e-03 2.124700e-03 1.393185e-03 9.142843e-04 6.007122e-04 3.881946e-04 2.414951e-04 1.430530e-04 8.093207e-05 4.316798e-05 2.224807e-05 1.521546e-05 2.224807e-05 4.316798e-05 8.093207e-05 1.430530e-04 2.414951e-04 3.881946e-04 6.007122e-04 9.142843e-04 1.393185e-03 2.124700e-03 3.216713e-03 4.828012e-03 7.246795e-03 1.095327e-02 1.660829e-02 2.499127e-02 3.702578e-02 5.389576e-02 7.686693e-02 1.062787e-01 1.401770e-01 1.725710e-01 1.962683e-01 2.050162e-01
  3.560424e-01 3.382691e-01 2.913202e-01 2.303181e-01 1.694200e-01 1.171477e-01 7.827832e-02 5.158673e-02 3.375226e-02 2.187519e-02 1.407386e-02 9.073214e-03 5.914375e-03 3.880488e-03 2.537256e-03 1.643280e-03 1.064064e-03 6.890170e-04 4.423338e-04 2.726176e-04 1.606402e-04 8.834823e-05 4.616453e-05 2.154716e-05 1.454733e-05 2.154716e-05 4.616453e-05 8.834823e-05 1.606402e-04 2.726176e-04 4.423338e-04 6.890170e-04 1.064064e-03 1.643280e-03 2.537256e-03 3.880488e-03 5.914375e-03 9.073214e-03 1.407386e-02 2.187519e-02 3.375226e-02 5.158673e-02 7.827832e-02 1.171477e-01 1.694200e-01 2.303181e-01 2.913202e-01 3.382691e-01 3.560424e-01
  6.016396e-01 5.692685e-01 4.810555e-01 3.657025e-01 2.577402e-01 1.722681e-01 1.100017e-01 6.935175e-02 4.380509e-02 2.772581e-02 1.745450e-02 1.102681e-02 7.030233e-03 4.554224e-03 2.939605e-03 1.895753e-03 1.206367e-03 7.791159e-04 4.889757e-04 3.054803e-04 1.725850e-04 9.866794e-05 4.465583e-05 2.412623e-05 9.697028e-06 2.412623e-05 4.465583e-05 9.866794e-05 1.725850e-04 3.054803e-04 4.889757e-04 7.791159e-04 1.206367e-03 1.895753e-03 2.939605e-03 4.554224e-03 7.030233e-03 1.102681e-02 1.745450e-02 2.772581e-02 4.380509e-02 6.935175e-02 1.100017e-01 1.722681e-01 2.577402e-01 3.657025e-01 4.810555e-01 5.692685e-01 6.016396e-01
  8.938578e-01 8.582370e-01 7.381040e-01 5.528480e-01 3.715563e-01 2.375606e-01 1.470316e-01 8.887817e-02 5.437219e-02 3.353101e-02 2.081837e-02 1.288473e-02 8.121835e-03 5.153539e-03 3.330367e-03 2.105500e-03 1.355756e-03 8.439109e-04 5.471236e-04 3.188112e-04 1.973093e-04 9.293330e-05 5.671125e-05 1.215955e-05 1.860040e-05 1.215955e-05 5.671125e-05 9.293330e-05 1.973093e-04 3.188112e-04 5.471236e-04 8.439109e-04 1.355756e-03 2.105500e-03 3.330367e-03 5.153539e-03 8.121835e-03 1.288473e-02 2.081837e-02 3.353101e-02 5.437219e-02 8.887817e-02 1.470316e-01 2.375606e-01 3.715563e-01 5.528480e-01 7.381040e-01 8.582370e-01 8.938578e-01