CRYSTAL
PRIMVEC
  5.291772   0.000000   0.000000
  0.000000   5.291772   0.000000
  0.000000   0.000000   5.291772
PRIMCOORD
3 1
 1   0.000000   0.597970   0.767307
 1   0.000000   0.597970  -0.767307
 8   0.000000   0.000000   0.000000
BEGIN_BLOCK_DATAGRID_3D
 water.wfns_0_3.rs
 BEGIN_DATAGRID_3D_water.wfns_0_3.rs
  49 49 49
    0.000000   0.000000   0.000000
    5.291772   0.000000   0.000000
    0.000000   5.291772   0.000000
    0.000000   0.000000   5.291772
  -3.263405e-06 2.039422e-01 3.538338e-01 4.207453e-01 4.102317e-01 3.520461e-01 2.799981e-01 2.162420e-01 1.676760e-01 1.318169e-01 1.043127e-01 8.259754e-02 6.561217e-02 5.248005e-02 4.214190e-02 3.376603e-02 2.694943e-02 2.145566e-02 1.696726e-02 1.315966e-02 9.866259e-03 7.036711e-03 4.567137e-03 2.268937e-03 5.451725e-07 -2.267845e-03 -4.566039e-03 -7.035607e-03 -9.865151e-03 -1.315855e-02 -1.696615e-02 -2.145455e-02 -2.694835e-02 -3.376498e-02 -4.214089e-02 -5.247912e-02 -6.561134e-02 -8.259685e-02 -1.043122e-01 -1.318167e-01 -1.676762e-01 -2.162427e-01 -2.799996e-01 -3.520484e-01 -4.102351e-01 -4.207499e-01 -3.538394e-01 -2.039485e-01 -3.263405e-06
  -3.653365e-06 1.964857e-01 3.413112e-01 4.067620e-01 3.979982e-01 3.432632e-01 2.747240e-01 2.135416e-01 1.664500e-01 1.313023e-01 1.041419e-01 8.262192e-02 6.574166e-02 5.263714e-02 4.228064e-02 3.387978e-02 2.704889e-02 2.154549e-02 1.704323e-02 1.321883e-02 9.912178e-03 7.074581e-03 4.597272e-03 2.286448e-03 5.519853e-07 -2.285341e-03 -4.596160e-03 -7.073462e-03 -9.911053e-03 -1.321771e-02 -1.704210e-02 -2.154437e-02 -2.704779e-02 -3.387871e-02 -4.227962e-02 -5.263619e-02 -6.574080e-02 -8.262122e-02 -1.041414e-01 -1.313021e-01 -1.664502e-01 -2.135424e-01 -2.747255e-01 -3.432657e-01 -3.980019e-01 -4.067670e-01 -3.413174e-01 -1.964927e-01 -3.653365e-06
  -3.658258e-06 1.729679e-01 3.012542e-01 3.608391e-01 3.560157e-01 3.108841e-01 2.528733e-01 2.000411e-01 1.582967e-01 1.261821e-01 1.007733e-01 8.039316e-02 6.429037e-02 5.167843e-02 4.161341e-02 3.340053e-02 2.671229e-02 2.131689e-02 1.688565e-02 1.310437e-02 9.828124e-03 7.016740e-03 4.562172e-03 2.270137e-03 5.587491e-07 -2.269017e-03 -4.561046e-03 -7.015606e-03 -9.826984e-03 -1.310322e-02 -1.688451e-02 -2.131575e-02 -2.671117e-02 -3.339943e-02 -4.161236e-02 -5.167744e-02 -6.428947e-02 -8.039241e-02 -1.007728e-01 -1.261819e-01 -1.582968e-01 -2.000418e-01 -2.528747e-01 -3.108866e-01 -3.560193e-01 -3.608441e-01 -3.012604e-01 -1.729749e-01 -3.658258e-06
  -3.275688e-06 1.399673e-01 2.449027e-01 2.959041e-01 2.960949e-01 2.639032e-01 2.202744e-01 1.790189e-01 1.448901e-01 1.173097e-01 9.468762e-02 7.620458e-02 6.143177e-02 4.969953e-02 4.019547e-02 3.236693e-02 2.596906e-02 2.079011e-02 1.650716e-02 1.282519e-02 9.622069e-03 6.870191e-03 4.466709e-03 2.222307e-03 5.652825e-07 -2.221173e-03 -4.465569e-03 -6.869042e-03 -9.620912e-03 -1.282402e-02 -1.650600e-02 -2.078894e-02 -2.596791e-02 -3.236580e-02 -4.019438e-02 -4.969849e-02 -6.143083e-02 -7.620377e-02 -9.468699e-02 -1.173093e-01 -1.448901e-01 -1.790194e-01 -2.202756e-01 -2.639053e-01 -2.960981e-01 -2.959085e-01 -2.449082e-01 -1.399736e-01 -3.275688e-06
  -2.615486e-06 1.052498e-01 1.855215e-01 2.272138e-01 2.321945e-01 2.130030e-01 1.839412e-01 1.545412e-01 1.284334e-01 1.059099e-01 8.663142e-02 7.053441e-02 5.746119e-02 4.687308e-02 3.812945e-02 3.084499e-02 2.486172e-02 1.998943e-02 1.592091e-02 1.239219e-02 9.308138e-03 6.651916e-03 4.326366e-03 2.152123e-03 5.715534e-07 -2.150977e-03 -4.325212e-03 -6.650753e-03 -9.306965e-03 -1.239101e-02 -1.591972e-02 -1.998824e-02 -2.486054e-02 -3.084383e-02 -3.812832e-02 -4.687200e-02 -5.746019e-02 -7.053352e-02 -8.663069e-02 -1.059094e-01 -1.284332e-01 -1.545415e-01 -1.839420e-01 -2.130045e-01 -2.321969e-01 -2.272172e-01 -1.855258e-01 -1.052548e-01 -2.615486e-06
  -1.842921e-06 7.486792e-02 1.334194e-01 1.665810e-01 1.750930e-01 1.664573e-01 1.494057e-01 1.299788e-01 1.109363e-01 9.324308e-02 7.744166e-02 6.393639e-02 5.272774e-02 4.341394e-02 3.555356e-02 2.892853e-02 2.345185e-02 1.895086e-02 1.514670e-02 1.181914e-02 8.900258e-03 6.376738e-03 4.154079e-03 2.067157e-03 5.775541e-07 -2.065999e-03 -4.152913e-03 -6.375561e-03 -8.899070e-03 -1.181794e-02 -1.514549e-02 -1.894965e-02 -2.345065e-02 -2.892734e-02 -3.555239e-02 -4.341281e-02 -5.272666e-02 -6.393541e-02 -7.744081e-02 -9.324242e-02 -1.109359e-01 -1.299788e-01 -1.494061e-01 -1.664582e-01 -1.750946e-01 -1.665834e-01 -1.334225e-01 -7.487143e-02 -1.842921e-06
  -1.107813e-06 5.168307e-02 9.344263e-02 1.195243e-01 1.298298e-01 1.282248e-01 1.195102e-01 1.073307e-01 9.384838e-02 8.038399e-02 6.789127e-02 5.693129e-02 4.756671e-02 3.954376e-02 3.262601e-02 2.673428e-02 2.182172e-02 1.772834e-02 1.421857e-02 1.112730e-02 8.410881e-03 6.050542e-03 3.951568e-03 1.967467e-03 5.830793e-07 -1.966298e-03 -3.950390e-03 -6.049353e-03 -8.409679e-03 -1.112609e-02 -1.421734e-02 -1.772711e-02 -2.182048e-02 -2.673304e-02 -3.262479e-02 -3.954257e-02 -4.756557e-02 -5.693022e-02 -6.789030e-02 -8.038316e-02 -9.384774e-02 -1.073304e-01 -1.195102e-01 -1.282251e-01 -1.298306e-01 -1.195256e-01 -9.344441e-02 -5.168517e-02 -1.107813e-06
  -4.989964e-07 3.563665e-02 6.547960e-02 8.592928e-02 9.640260e-02 9.855112e-02 9.481585e-02 8.741158e-02 7.807037e-02 6.813955e-02 5.859193e-02 4.993585e-02 4.225981e-02 3.546888e-02 2.950768e-02 2.438505e-02 2.006009e-02 1.638501e-02 1.318208e-02 1.034754e-02 7.855922e-03 5.676272e-03 3.714651e-03 1.848732e-03 5.876991e-07 -1.847553e-03 -3.713465e-03 -5.675073e-03 -7.854709e-03 -1.034631e-02 -1.318084e-02 -1.638376e-02 -2.005883e-02 -2.438378e-02 -2.950642e-02 -3.546763e-02 -4.225860e-02 -4.993469e-02 -5.859083e-02 -6.813856e-02 -7.806951e-02 -8.741091e-02 -9.481541e-02 -9.855095e-02 -9.640274e-02 -8.592973e-02 -6.548033e-02 -3.563757e-02 -4.989964e-07
  -3.954019e-08 2.507114e-02 4.674614e-02 6.272061e-02 7.224495e-02 7.585384e-02 7.476664e-02 7.040093e-02 6.411342e-02 5.703872e-02 4.995287e-02 4.324129e-02 3.702967e-02 3.137417e-02 2.634737e-02 2.198888e-02 1.824096e-02 1.497557e-02 1.208268e-02 9.516281e-03 7.259103e-03 5.264715e-03 3.445691e-03 1.710471e-03 5.910000e-07 -1.709286e-03 -3.444498e-03 -5.263508e-03 -7.257880e-03 -9.515041e-03 -1.208143e-02 -1.497430e-02 -1.823967e-02 -2.198758e-02 -2.634607e-02 -3.137287e-02 -3.702839e-02 -4.324004e-02 -4.995166e-02 -5.703758e-02 -6.411237e-02 -7.040000e-02 -7.476586e-02 -7.585322e-02 -7.224453e-02 -6.272037e-02 -4.674607e-02 -2.507118e-02 -3.954019e-08
  2.893032e-07 1.808241e-02 3.408158e-02 4.646579e-02 5.453443e-02 5.837374e-02 5.862887e-02 5.624192e-02 5.220415e-02 4.733928e-02 4.218445e-02 3.702849e-02 3.205152e-02 2.742155e-02 2.327109e-02 1.962734e-02 1.641442e-02 1.353836e-02 1.095742e-02 8.668259e-03 6.648512e-03 4.836047e-03 3.158107e-03 1.559738e-03 5.928334e-07 -1.558549e-03 -3.156910e-03 -4.834835e-03 -6.647283e-03 -8.667011e-03 -1.095616e-02 -1.353707e-02 -1.641312e-02 -1.962602e-02 -2.326976e-02 -2.742021e-02 -3.205018e-02 -3.702716e-02 -4.218314e-02 -4.733800e-02 -5.220293e-02 -5.624077e-02 -5.862780e-02 -5.837277e-02 -5.453358e-02 -4.646504e-02 -3.408092e-02 -1.808181e-02 2.893032e-07
  5.190276e-07 1.326485e-02 2.517897e-02 3.470106e-02 4.127771e-02 4.486190e-02 4.581577e-02 4.474764e-02 4.231617e-02 3.906066e-02 3.534001e-02 3.139788e-02 2.745904e-02 2.374006e-02 2.037312e-02 1.735727e-02 1.461658e-02 1.210473e-02 9.837275e-03 7.831061e-03 6.046584e-03 4.409158e-03 2.867892e-03 1.406488e-03 5.932828e-07 -1.405298e-03 -2.866693e-03 -4.407945e-03 -6.045352e-03 -7.829809e-03 -9.836001e-03 -1.210343e-02 -1.461526e-02 -1.735593e-02 -2.037176e-02 -2.373869e-02 -2.745765e-02 -3.139649e-02 -3.533862e-02 -3.905928e-02 -4.231481e-02 -4.474632e-02 -4.581448e-02 -4.486067e-02 -4.127653e-02 -3.469994e-02 -2.517789e-02 -1.326380e-02 5.190276e-07
  6.763496e-07 9.814371e-03 1.872271e-02 2.601793e-02 3.130352e-02 3.450556e-02 3.581446e-02 3.558649e-02 3.422291e-02 3.206861e-02 2.938512e-02 2.639789e-02 2.333821e-02 2.040893e-02 1.770847e-02 1.521773e-02 1.288433e-02 1.071227e-02 8.753432e-03 7.023736e-03 5.462782e-03 3.991033e-03 2.583089e-03 1.256965e-03 5.924081e-07 -1.255778e-03 -2.581892e-03 -3.989822e-03 -5.461551e-03 -7.022483e-03 -8.752155e-03 -1.071097e-02 -1.288301e-02 -1.521638e-02 -1.770709e-02 -2.040753e-02 -2.333679e-02 -2.639645e-02 -2.938367e-02 -3.206715e-02 -3.422146e-02 -3.558503e-02 -3.581301e-02 -3.450413e-02 -3.130211e-02 -2.601654e-02 -1.872134e-02 -9.813014e-03 6.763496e-07
  7.795571e-07 7.311855e-03 1.400867e-02 1.961492e-02 2.385795e-02 2.665816e-02 2.808788e-02 2.832771e-02 2.761498e-02 2.618913e-02 2.426505e-02 2.204414e-02 1.972151e-02 1.745017e-02 1.529304e-02 1.323443e-02 1.125783e-02 9.403947e-03 7.736040e-03 6.257862e-03 4.896578e-03 3.579320e-03 2.304581e-03 1.113435e-03 5.900985e-07 -1.112251e-03 -2.303388e-03 -3.578112e-03 -4.895351e-03 -6.256613e-03 -7.734765e-03 -9.402646e-03 -1.125650e-02 -1.323307e-02 -1.529166e-02 -1.744875e-02 -1.972007e-02 -2.204266e-02 -2.426356e-02 -2.618762e-02 -2.761345e-02 -2.832617e-02 -2.808633e-02 -2.665660e-02 -2.385639e-02 -1.961336e-02 -1.400711e-02 -7.310296e-03 7.795571e-07
  8.417651e-07 5.501771e-03 1.058156e-02 1.491922e-02 1.832676e-02 2.072294e-02 2.210668e-02 2.255559e-02 2.221987e-02 2.128638e-02 1.993596e-02 1.832684e-02 1.659555e-02 1.484381e-02 1.311806e-02 1.142245e-02 9.769900e-03 8.212586e-03 6.804577e-03 5.539106e-03 4.347996e-03 3.175701e-03 2.036887e-03 9.798414e-04 5.862170e-07 -9.786657e-04 -2.035702e-03 -3.174501e-03 -4.346776e-03 -5.537864e-03 -6.803308e-03 -8.211289e-03 -9.768572e-03 -1.142109e-02 -1.311667e-02 -1.484238e-02 -1.659409e-02 -1.832535e-02 -1.993444e-02 -2.128483e-02 -2.221829e-02 -2.255400e-02 -2.210506e-02 -2.072130e-02 -1.832510e-02 -1.491756e-02 -1.057988e-02 -5.500090e-03 8.417651e-07
  8.739389e-07 4.188580e-03 8.080537e-03 1.145643e-02 1.418466e-02 1.618946e-02 1.743577e-02 1.795203e-02 1.784460e-02 1.726423e-02 1.635073e-02 1.520865e-02 1.392053e-02 1.255827e-02 1.117316e-02 9.791614e-03 8.436847e-03 7.148199e-03 5.961287e-03 4.869383e-03 3.825163e-03 2.794001e-03 1.793866e-03 8.644945e-04 5.808404e-07 -8.633294e-04 -1.792691e-03 -2.792812e-03 -3.823954e-03 -4.868151e-03 -5.960028e-03 -7.146911e-03 -8.435527e-03 -9.790261e-03 -1.117178e-02 -1.255685e-02 -1.391907e-02 -1.520715e-02 -1.634920e-02 -1.726267e-02 -1.784300e-02 -1.795040e-02 -1.743411e-02 -1.618778e-02 -1.418295e-02 -1.145470e-02 -8.078801e-03 -4.186835e-03 8.739389e-07
  8.853320e-07 3.220011e-03 6.224486e-03 8.859552e-03 1.103368e-02 1.268430e-02 1.376863e-02 1.429482e-02 1.434106e-02 1.402134e-02 1.342948e-02 1.262218e-02 1.164835e-02 1.057280e-02 9.460980e-03 8.351876e-03 7.260574e-03 6.202254e-03 5.197306e-03 4.250452e-03 3.341840e-03 2.452203e-03 1.589258e-03 7.738726e-04 5.742800e-07 -7.727208e-04 -1.588096e-03 -2.451027e-03 -3.340644e-03 -4.249233e-03 -5.196061e-03 -6.200979e-03 -7.259267e-03 -8.350535e-03 -9.459603e-03 -1.057139e-02 -1.164689e-02 -1.262069e-02 -1.342795e-02 -1.401978e-02 -1.433946e-02 -1.429319e-02 -1.376696e-02 -1.268260e-02 -1.103196e-02 -8.857809e-03 -6.222728e-03 -3.218243e-03 8.853320e-07
  8.827612e-07 2.491341e-03 4.821887e-03 6.882540e-03 8.611921e-03 9.963485e-03 1.089775e-02 1.141280e-02 1.156257e-02 1.142538e-02 1.105598e-02 1.047989e-02 9.731326e-03 8.877185e-03 7.991007e-03 7.111041e-03 6.236751e-03 5.363590e-03 4.506887e-03 3.687765e-03 2.908965e-03 2.156670e-03 1.421204e-03 7.034460e-04 5.668502e-07 -7.023092e-04 -1.420058e-03 -2.155510e-03 -2.907786e-03 -3.686563e-03 -4.505659e-03 -5.362333e-03 -6.235461e-03 -7.109716e-03 -7.989646e-03 -8.875787e-03 -9.729889e-03 -1.047842e-02 -1.105447e-02 -1.142382e-02 -1.156098e-02 -1.141118e-02 -1.089609e-02 -9.961795e-03 -8.610206e-03 -6.880803e-03 -4.820134e-03 -2.489579e-03 8.827612e-07
  8.705348e-07 1.938591e-03 3.755861e-03 5.374785e-03 6.756142e-03 7.866581e-03 8.670493e-03 9.157905e-03 9.362551e-03 9.336453e-03 9.111263e-03 8.698355e-03 8.125851e-03 7.457334e-03 6.760803e-03 6.064952e-03 5.358057e-03 4.628724e-03 3.895398e-03 3.191239e-03 2.530092e-03 1.897282e-03 1.270110e-03 6.375708e-04 5.586725e-07 -6.364507e-04 -1.268981e-03 -1.896140e-03 -2.528931e-03 -3.190057e-03 -3.894189e-03 -4.627486e-03 -5.356788e-03 -6.063648e-03 -6.759463e-03 -7.455957e-03 -8.124436e-03 -8.696901e-03 -9.109771e-03 -9.334923e-03 -9.360983e-03 -9.156302e-03 -8.668857e-03 -7.864915e-03 -6.754450e-03 -5.373072e-03 -3.754133e-03 -1.936853e-03 8.705348e-07
  8.513259e-07 1.522025e-03 2.952343e-03 4.237111e-03 5.352012e-03 6.271583e-03 6.961222e-03 7.403894e-03 7.620021e-03 7.648419e-03 7.513132e-03 7.221961e-03 6.796534e-03 6.287150e-03 5.746085e-03 5.191912e-03 4.611739e-03 3.998163e-03 3.373108e-03 2.770665e-03 2.204554e-03 1.660410e-03 1.116249e-03 5.620553e-04 5.497462e-07 -5.609533e-04 -1.115140e-03 -1.659287e-03 -2.203414e-03 -2.769503e-03 -3.371921e-03 -3.996948e-03 -4.610493e-03 -5.190633e-03 -5.744771e-03 -6.285799e-03 -6.795146e-03 -7.220536e-03 -7.511669e-03 -7.646920e-03 -7.618485e-03 -7.402324e-03 -6.959621e-03 -6.269953e-03 -5.350357e-03 -4.235435e-03 -2.950653e-03 -1.520325e-03 8.513259e-07
  8.271887e-07 1.211296e-03 2.353036e-03 3.387676e-03 4.300014e-03 5.068376e-03 5.657841e-03 6.046950e-03 6.249606e-03 6.300441e-03 6.223372e-03 6.025117e-03 5.717983e-03 5.334650e-03 4.911212e-03 4.461845e-03 3.980671e-03 3.467576e-03 2.942078e-03 2.427983e-03 1.932199e-03 1.445630e-03 9.605351e-04 4.782540e-04 5.401827e-07 -4.771713e-04 -9.594450e-04 -1.444528e-03 -1.931079e-03 -2.426843e-03 -2.940913e-03 -3.466385e-03 -3.979450e-03 -4.460593e-03 -4.909926e-03 -5.333329e-03 -5.716626e-03 -6.023724e-03 -6.221944e-03 -6.298977e-03 -6.248107e-03 -6.045419e-03 -5.656281e-03 -5.066789e-03 -4.298404e-03 -3.386047e-03 -2.351393e-03 -1.209644e-03 8.271887e-07
  8.000435e-07 9.794126e-04 1.905583e-03 2.751953e-03 3.508475e-03 4.155765e-03 4.660214e-03 5.000002e-03 5.186675e-03 5.252331e-03 5.219161e-03 5.090112e-03 4.867923e-03 4.571769e-03 4.228593e-03 3.854353e-03 3.452266e-03 3.027000e-03 2.590767e-03 2.152948e-03 1.712356e-03 1.266829e-03 8.257453e-04 4.036029e-04 5.303184e-07 -4.025398e-04 -8.246750e-04 -1.265747e-03 -1.711258e-03 -2.151830e-03 -2.589626e-03 -3.025834e-03 -3.451071e-03 -3.853129e-03 -4.227337e-03 -4.570479e-03 -4.866599e-03 -5.088754e-03 -5.217769e-03 -5.250905e-03 -5.185217e-03 -4.998514e-03 -4.658699e-03 -4.154226e-03 -3.506915e-03 -2.750376e-03 -1.903993e-03 -9.778151e-04 8.000435e-07
  7.716220e-07 8.049909e-04 1.569091e-03 2.272790e-03 2.908275e-03 3.458159e-03 3.893039e-03 4.194897e-03 4.374723e-03 4.459271e-03 4.463515e-03 4.383661e-03 4.216351e-03 3.975632e-03 3.686445e-03 3.367373e-03 3.026288e-03 2.669021e-03 2.302549e-03 1.927907e-03 1.539044e-03 1.136022e-03 7.350656e-04 3.563424e-04 5.205910e-07 -3.552988e-04 -7.340149e-04 -1.134960e-03 -1.537966e-03 -1.926811e-03 -2.301432e-03 -2.667880e-03 -3.025120e-03 -3.366176e-03 -3.685217e-03 -3.974373e-03 -4.215061e-03 -4.382339e-03 -4.462162e-03 -4.457886e-03 -4.373309e-03 -4.193455e-03 -3.891572e-03 -3.456670e-03 -2.906767e-03 -2.271267e-03 -1.567557e-03 -8.034500e-04 7.716220e-07
  7.432661e-07 6.758492e-04 1.321164e-03 1.920711e-03 2.466001e-03 2.940375e-03 3.320018e-03 3.593361e-03 3.771825e-03 3.874733e-03 3.906947e-03 3.858502e-03 3.725641e-03 3.524322e-03 3.279447e-03 3.006574e-03 2.709970e-03 2.394443e-03 2.069567e-03 1.740299e-03 1.401528e-03 1.048550e-03 6.893193e-04 3.387081e-04 5.113462e-07 -3.376831e-04 -6.882874e-04 -1.047508e-03 -1.400472e-03 -1.739225e-03 -2.068473e-03 -2.393326e-03 -2.708828e-03 -3.005404e-03 -3.278249e-03 -3.523095e-03 -3.724384e-03 -3.857216e-03 -3.905632e-03 -3.873390e-03 -3.770454e-03 -3.591965e-03 -3.318599e-03 -2.938936e-03 -2.464546e-03 -1.919242e-03 -1.319686e-03 -6.743648e-04 7.432661e-07
  7.159301e-07 5.872554e-04 1.153502e-03 1.686008e-03 2.172902e-03 2.595651e-03 2.934655e-03 3.184822e-03 3.358736e-03 3.469336e-03 3.513469e-03 3.479101e-03 3.367311e-03 3.199096e-03 2.997175e-03 2.767149e-03 2.502842e-03 2.206968e-03 1.897813e-03 1.593092e-03 1.293476e-03 9.870154e-04 6.662434e-04 3.350415e-04 5.027841e-07 -3.340336e-04 -6.652292e-04 -9.859910e-04 -1.292438e-03 -1.592038e-03 -1.896740e-03 -2.205873e-03 -2.501724e-03 -2.766006e-03 -2.996005e-03 -3.197899e-03 -3.366086e-03 -3.477850e-03 -3.512191e-03 -3.468032e-03 -3.357408e-03 -3.183471e-03 -2.933284e-03 -2.594262e-03 -2.171498e-03 -1.684592e-03 -1.152078e-03 -5.858255e-04 7.159301e-07
  6.904359e-07 5.361123e-04 1.059324e-03 1.558390e-03 2.017038e-03 2.413020e-03 2.728248e-03 2.961834e-03 3.127428e-03 3.234304e-03 3.275698e-03 3.241407e-03 3.139049e-03 2.994119e-03 2.825812e-03 2.629205e-03 2.388040e-03 2.102770e-03 1.798389e-03 1.502524e-03 1.221194e-03 9.395593e-04 6.420822e-04 3.264264e-04 4.950493e-07 -3.254342e-04 -6.410839e-04 -9.385515e-04 -1.220174e-03 -1.501488e-03 -1.797335e-03 -2.101696e-03 -2.386943e-03 -2.628086e-03 -2.824669e-03 -2.992951e-03 -3.137855e-03 -3.240187e-03 -3.274454e-03 -3.233036e-03 -3.126139e-03 -2.960525e-03 -2.726920e-03 -2.411676e-03 -2.015681e-03 -1.557023e-03 -1.057950e-03 -5.347330e-04 6.904359e-07
  6.676870e-07 5.186100e-04 1.028667e-03 1.519589e-03 1.972459e-03 2.362525e-03 2.671657e-03 2.900176e-03 3.061695e-03 3.164062e-03 3.200076e-03 3.161623e-03 3.059319e-03 2.919618e-03 2.759976e-03 2.573291e-03 2.342689e-03 2.068589e-03 1.774032e-03 1.482802e-03 1.198992e-03 9.115298e-04 6.130585e-04 3.073608e-04 4.883129e-07 -3.063822e-04 -6.120741e-04 -9.105362e-04 -1.197986e-03 -1.481782e-03 -1.772995e-03 -2.067533e-03 -2.341613e-03 -2.572193e-03 -2.758855e-03 -2.918474e-03 -3.058151e-03 -3.160431e-03 -3.198861e-03 -3.162825e-03 -3.060439e-03 -2.898902e-03 -2.670367e-03 -2.361221e-03 -1.971143e-03 -1.518265e-03 -1.027337e-03 -5.172759e-04 6.676870e-07
  6.484548e-07 5.339449e-04 1.057357e-03 1.559022e-03 2.021001e-03 2.419910e-03 2.737808e-03 2.973739e-03 3.140060e-03 3.245030e-03 3.283016e-03 3.245815e-03 3.140392e-03 2.988468e-03 2.807694e-03 2.599536e-03 2.359427e-03 2.093101e-03 1.814837e-03 1.530759e-03 1.233380e-03 9.176838e-04 5.962012e-04 2.891838e-04 4.827463e-07 -2.882164e-04 -5.952282e-04 -9.167018e-04 -1.232386e-03 -1.529751e-03 -1.813813e-03 -2.092059e-03 -2.358367e-03 -2.598455e-03 -2.806592e-03 -2.987344e-03 -3.139245e-03 -3.244647e-03 -3.281827e-03 -3.243821e-03 -3.138833e-03 -2.972496e-03 -2.736550e-03 -2.418641e-03 -2.019722e-03 -1.557734e-03 -1.056065e-03 -5.326490e-04 6.484548e-07
  6.327647e-07 5.868683e-04 1.154430e-03 1.689022e-03 2.176742e-03 2.598940e-03 2.937875e-03 3.189017e-03 3.362738e-03 3.470351e-03 3.511292e-03 3.477698e-03 3.369210e-03 3.198048e-03 2.980267e-03 2.728704e-03 2.456703e-03 2.180448e-03 1.907760e-03 1.626045e-03 1.312788e-03 9.648729e-04 6.116118e-04 2.889650e-04 4.784429e-07 -2.880063e-04 -6.106476e-04 -9.639002e-04 -1.311804e-03 -1.625048e-03 -1.906748e-03 -2.179419e-03 -2.455655e-03 -2.727637e-03 -2.979180e-03 -3.196941e-03 -3.368082e-03 -3.476550e-03 -3.510125e-03 -3.469166e-03 -3.361537e-03 -3.187800e-03 -2.936645e-03 -2.597699e-03 -2.175492e-03 -1.687765e-03 -1.153169e-03 -5.856037e-04 6.327647e-07
  6.195280e-07 6.829062e-04 1.333499e-03 1.934058e-03 2.475322e-03 2.943445e-03 3.318789e-03 3.590381e-03 3.765793e-03 3.861910e-03 3.888156e-03 3.842533e-03 3.721857e-03 3.530337e-03 3.278768e-03 2.982725e-03 2.664774e-03 2.350336e-03 2.050494e-03 1.748905e-03 1.416359e-03 1.045440e-03 6.656974e-04 3.156976e-04 4.753818e-07 -3.147451e-04 -6.647397e-04 -1.044475e-03 -1.415383e-03 -1.747916e-03 -2.049491e-03 -2.349316e-03 -2.663737e-03 -2.981670e-03 -3.277693e-03 -3.529243e-03 -3.720744e-03 -3.841403e-03 -3.887008e-03 -3.860746e-03 -3.764613e-03 -3.589188e-03 -3.317584e-03 -2.942229e-03 -2.474097e-03 -1.932827e-03 -1.332263e-03 -6.816679e-04 6.195280e-07
  6.070652e-07 8.229677e-04 1.599924e-03 2.307982e-03 2.940531e-03 3.485693e-03 3.919088e-03 4.221368e-03 4.396271e-03 4.465822e-03 4.450741e-03 4.360572e-03 4.199934e-03 3.975617e-03 3.694980e-03 3.364949e-03 2.999237e-03 2.622196e-03 2.255648e-03 1.899853e-03 1.535159e-03 1.147900e-03 7.499304e-04 3.654051e-04 4.734556e-07 -3.644566e-04 -7.489771e-04 -1.146940e-03 -1.534188e-03 -1.898869e-03 -2.254651e-03 -2.621184e-03 -2.998208e-03 -3.363902e-03 -3.693916e-03 -3.974535e-03 -4.198835e-03 -4.359456e-03 -4.449610e-03 -4.464675e-03 -4.395110e-03 -4.220195e-03 -3.917904e-03 -3.484499e-03 -2.939329e-03 -2.306775e-03 -1.598713e-03 -8.217543e-04 6.070652e-07
  5.941963e-07 1.009048e-03 1.958658e-03 2.818766e-03 3.581349e-03 4.233190e-03 4.745272e-03 5.092711e-03 5.276875e-03 5.321563e-03 5.252428e-03 5.088120e-03 4.848245e-03 4.556595e-03 4.228614e-03 3.861801e-03 3.448470e-03 2.998347e-03 2.540912e-03 2.102163e-03 1.684155e-03 1.271231e-03 8.515861e-04 4.263514e-04 4.725206e-07 -4.254049e-04 -8.506351e-04 -1.270272e-03 -1.683187e-03 -2.101183e-03 -2.539919e-03 -2.997339e-03 -3.447446e-03 -3.860761e-03 -4.227558e-03 -4.555523e-03 -4.847158e-03 -5.087016e-03 -5.251310e-03 -5.320431e-03 -5.275731e-03 -5.091556e-03 -4.744108e-03 -4.232018e-03 -3.580171e-03 -2.817584e-03 -1.957472e-03 -1.007861e-03 5.941963e-07
  5.806595e-07 1.257812e-03 2.440195e-03 3.504848e-03 4.435974e-03 5.215986e-03 5.815178e-03 6.212360e-03 6.414277e-03 6.446129e-03 6.329453e-03 6.080812e-03 5.730281e-03 5.325111e-03 4.902985e-03 4.465541e-03 3.989093e-03 3.463703e-03 2.914942e-03 2.383974e-03 1.891589e-03 1.426323e-03 9.632811e-04 4.874746e-04 4.724364e-07 -4.865283e-04 -9.623305e-04 -1.425365e-03 -1.890622e-03 -2.382995e-03 -2.913950e-03 -3.462697e-03 -3.988073e-03 -4.464506e-03 -4.901936e-03 -5.324047e-03 -5.729202e-03 -6.079719e-03 -6.328348e-03 -6.445012e-03 -6.413149e-03 -6.211224e-03 -5.814035e-03 -5.214837e-03 -4.434820e-03 -3.503691e-03 -2.439036e-03 -1.256651e-03 5.806595e-07
  5.661887e-07 1.603561e-03 3.109242e-03 4.454178e-03 5.606079e-03 6.538306e-03 7.223512e-03 7.654489e-03 7.856119e-03 7.864084e-03 7.696848e-03 7.361308e-03 6.885728e-03 6.331640e-03 5.761047e-03 5.195290e-03 4.615594e-03 4.003644e-03 3.372724e-03 2.756426e-03 2.175642e-03 1.624525e-03 1.084723e-03 5.440213e-04 4.731007e-07 -5.430736e-04 -1.083771e-03 -1.623566e-03 -2.174674e-03 -2.755447e-03 -3.371733e-03 -4.002640e-03 -4.614576e-03 -5.194259e-03 -5.760002e-03 -6.330583e-03 -6.884657e-03 -7.360226e-03 -7.695756e-03 -7.862982e-03 -7.855010e-03 -7.653374e-03 -7.222392e-03 -6.537182e-03 -5.604952e-03 -4.453048e-03 -3.108111e-03 -1.602429e-03 5.661887e-07
  5.493200e-07 2.084654e-03 4.040028e-03 5.773332e-03 7.226882e-03 8.358353e-03 9.139948e-03 9.580689e-03 9.732356e-03 9.656734e-03 9.387563e-03 8.933719e-03 8.317876e-03 7.598111e-03 6.843292e-03 6.093880e-03 5.355107e-03 4.623076e-03 3.904263e-03 3.207574e-03 2.530986e-03 1.867655e-03 1.220608e-03 5.993512e-04 4.744664e-07 -5.984008e-04 -1.219653e-03 -1.866694e-03 -2.530016e-03 -3.206594e-03 -3.903271e-03 -4.622073e-03 -5.354090e-03 -6.092851e-03 -6.842251e-03 -7.597059e-03 -8.316814e-03 -8.932648e-03 -9.386484e-03 -9.655650e-03 -9.731268e-03 -9.579597e-03 -9.138853e-03 -8.357256e-03 -7.225784e-03 -5.772234e-03 -4.038930e-03 -2.083555e-03 5.493200e-07
  5.276423e-07 2.737842e-03 5.301438e-03 7.557693e-03 9.417718e-03 1.082044e-02 1.173350e-02 1.217576e-02 1.222250e-02 1.197055e-02 1.149389e-02 1.083461e-02 1.002826e-02 9.122549e-03 8.167769e-03 7.201455e-03 6.252047e-03 5.348129e-03 4.507370e-03 3.715929e-03 2.936540e-03 2.149725e-03 1.379474e-03 6.637639e-04 4.765230e-07 -6.628093e-04 -1.378515e-03 -2.148760e-03 -2.935566e-03 -3.714946e-03 -4.506377e-03 -5.347125e-03 -6.251031e-03 -7.200428e-03 -8.166732e-03 -9.121503e-03 -1.002720e-02 -1.083355e-02 -1.149283e-02 -1.196949e-02 -1.222144e-02 -1.217469e-02 -1.173243e-02 -1.081937e-02 -9.416656e-03 -7.556634e-03 -5.300381e-03 -2.736786e-03 5.276423e-07
  4.993691e-07 3.626286e-03 7.005218e-03 9.944626e-03 1.232013e-02 1.405951e-02 1.513565e-02 1.557898e-02 1.548075e-02 1.496654e-02 1.415990e-02 1.316460e-02 1.206312e-02 1.091100e-02 9.730830e-03 8.529919e-03 7.336553e-03 6.209024e-03 5.192452e-03 4.269471e-03 3.374162e-03 2.465207e-03 1.571739e-03 7.499649e-04 4.792469e-07 -7.490049e-04 -1.570775e-03 -2.464236e-03 -3.373183e-03 -4.268484e-03 -5.191455e-03 -6.208017e-03 -7.335536e-03 -8.528894e-03 -9.729797e-03 -1.090997e-02 -1.206208e-02 -1.316356e-02 -1.415886e-02 -1.496550e-02 -1.547971e-02 -1.557795e-02 -1.513462e-02 -1.405849e-02 -1.231912e-02 -9.943618e-03 -7.004216e-03 -3.625286e-03 4.993691e-07
  4.638248e-07 4.881618e-03 9.388544e-03 1.323030e-02 1.623397e-02 1.833182e-02 1.953648e-02 1.992424e-02 1.961820e-02 1.876614e-02 1.752587e-02 1.606039e-02 1.452046e-02 1.300371e-02 1.152741e-02 1.006189e-02 8.605763e-03 7.220274e-03 5.975975e-03 4.873344e-03 3.839710e-03 2.812197e-03 1.803443e-03 8.656105e-04 4.825629e-07 -8.646440e-04 -1.802473e-03 -2.811220e-03 -3.838726e-03 -4.872351e-03 -5.974973e-03 -7.219264e-03 -8.604745e-03 -1.006087e-02 -1.152638e-02 -1.300267e-02 -1.451943e-02 -1.605936e-02 -1.752484e-02 -1.876513e-02 -1.961719e-02 -1.992325e-02 -1.953550e-02 -1.833085e-02 -1.623301e-02 -1.322935e-02 -9.387609e-03 -4.880689e-03 4.638248e-07
  4.192684e-07 6.708302e-03 1.283125e-02 1.791448e-02 2.170365e-02 2.414431e-02 2.533787e-02 2.547895e-02 2.478796e-02 2.346369e-02 2.168245e-02 1.962979e-02 1.750540e-02 1.546802e-02 1.357112e-02 1.177398e-02 1.003276e-02 8.374344e-03 6.869054e-03 5.542127e-03 4.339301e-03 3.187922e-03 2.069103e-03 1.007297e-03 4.863465e-07 -1.006323e-03 -2.068126e-03 -3.186939e-03 -4.338310e-03 -5.541129e-03 -6.868047e-03 -8.373331e-03 -1.003174e-02 -1.177295e-02 -1.357010e-02 -1.546700e-02 -1.750439e-02 -1.962878e-02 -2.168145e-02 -2.346270e-02 -2.478700e-02 -2.547800e-02 -2.533695e-02 -2.414341e-02 -2.170277e-02 -1.791362e-02 -1.283040e-02 -6.707460e-03 4.192684e-07
  3.603719e-07 9.355274e-03 1.779648e-02 2.461667e-02 2.943513e-02 3.221023e-02 3.317520e-02 3.272695e-02 3.128968e-02 2.920112e-02 2.668457e-02 2.391194e-02 2.107330e-02 1.836248e-02 1.589422e-02 1.366046e-02 1.159018e-02 9.649225e-03 7.869020e-03 6.285683e-03 4.878975e-03 3.585057e-03 2.352191e-03 1.161747e-03 4.904594e-07 -1.160765e-03 -2.351206e-03 -3.584066e-03 -4.877977e-03 -6.284678e-03 -7.868008e-03 -9.648208e-03 -1.158916e-02 -1.365944e-02 -1.589320e-02 -1.836146e-02 -2.107230e-02 -2.391095e-02 -2.668360e-02 -2.920018e-02 -3.128877e-02 -3.272607e-02 -3.317435e-02 -3.220942e-02 -2.943434e-02 -2.461591e-02 -1.779574e-02 -9.354549e-03 3.603719e-07
  2.795277e-07 1.317168e-02 2.489007e-02 3.407289e-02 4.019800e-02 4.328315e-02 4.375202e-02 4.226983e-02 3.955988e-02 3.621795e-02 3.260616e-02 2.889629e-02 2.520869e-02 2.170055e-02 1.852446e-02 1.573346e-02 1.326338e-02 1.101776e-02 8.956847e-03 7.099546e-03 5.458648e-03 3.995348e-03 2.635573e-03 1.314524e-03 4.947903e-07 -1.313533e-03 -2.634579e-03 -3.994349e-03 -5.457643e-03 -7.098534e-03 -8.955830e-03 -1.101674e-02 -1.326236e-02 -1.573245e-02 -1.852345e-02 -2.169955e-02 -2.520770e-02 -2.889533e-02 -3.260523e-02 -3.621706e-02 -3.955903e-02 -4.226903e-02 -4.375127e-02 -4.328245e-02 -4.019735e-02 -3.407228e-02 -2.488948e-02 -1.317112e-02 2.795277e-07
  1.717688e-07 1.886669e-02 3.526990e-02 4.752806e-02 5.505835e-02 5.817558e-02 5.769226e-02 5.462318e-02 5.001830e-02 4.479564e-02 3.956328e-02 3.456881e-02 2.984794e-02 2.543792e-02 2.145485e-02 1.799881e-02 1.504247e-02 1.245009e-02 1.009964e-02 7.963905e-03 6.072012e-03 4.415626e-03 2.912558e-03 1.458931e-03 4.992929e-07 -1.457931e-03 -2.911555e-03 -4.414617e-03 -6.070997e-03 -7.962885e-03 -1.009861e-02 -1.244906e-02 -1.504144e-02 -1.799780e-02 -2.145384e-02 -2.543693e-02 -2.984698e-02 -3.456789e-02 -3.956239e-02 -4.479481e-02 -5.001752e-02 -5.462248e-02 -5.769162e-02 -5.817502e-02 -5.505786e-02 -4.752763e-02 -3.526951e-02 -1.886634e-02 1.717688e-07
  3.612280e-08 2.786737e-02 5.126258e-02 6.744190e-02 7.598803e-02 7.813498e-02 7.564491e-02 7.011581e-02 6.288651e-02 5.511065e-02 4.765390e-02 4.092238e-02 3.490973e-02 2.948275e-02 2.462632e-02 2.042899e-02 1.690528e-02 1.391219e-02 1.125729e-02 8.848727e-03 6.707026e-03 4.846523e-03 3.186856e-03 1.596899e-03 5.040058e-07 -1.595890e-03 -3.185843e-03 -4.845504e-03 -6.706002e-03 -8.847699e-03 -1.125626e-02 -1.391116e-02 -1.690426e-02 -2.042798e-02 -2.462532e-02 -2.948178e-02 -3.490880e-02 -4.092149e-02 -4.765306e-02 -5.510989e-02 -6.288583e-02 -7.011523e-02 -7.564443e-02 -7.813461e-02 -7.598776e-02 -6.744172e-02 -5.126246e-02 -2.786729e-02 3.612280e-08
  -1.335744e-07 4.234948e-02 7.647268e-02 9.771925e-02 1.061958e-01 1.051834e-01 9.851835e-02 8.895444e-02 7.810518e-02 6.708920e-02 5.683808e-02 4.790321e-02 4.029452e-02 3.371057e-02 2.793146e-02 2.295417e-02 1.880886e-02 1.536746e-02 1.239154e-02 9.720891e-03 7.344481e-03 5.283259e-03 3.461387e-03 1.731779e-03 5.090215e-07 -1.730760e-03 -3.460363e-03 -5.282230e-03 -7.343447e-03 -9.719854e-03 -1.239050e-02 -1.536643e-02 -1.880783e-02 -2.295316e-02 -2.793047e-02 -3.370962e-02 -4.029360e-02 -4.790236e-02 -5.683731e-02 -6.708852e-02 -7.810462e-02 -8.895401e-02 -9.851806e-02 -1.051833e-01 -1.061958e-01 -9.771938e-02 -7.647289e-02 -4.234974e-02 -1.335744e-07
  -3.638102e-07 6.446839e-02 1.145406e-01 1.424280e-01 1.491598e-01 1.415970e-01 1.273164e-01 1.112208e-01 9.532743e-02 8.033693e-02 6.683347e-02 5.532747e-02 4.585032e-02 3.796880e-02 3.123095e-02 2.547255e-02 2.069262e-02 1.677954e-02 1.347194e-02 1.054990e-02 7.958218e-03 5.708978e-03 3.728495e-03 1.861363e-03 5.144012e-07 -1.860332e-03 -3.727461e-03 -5.707938e-03 -7.957175e-03 -1.054886e-02 -1.347089e-02 -1.677850e-02 -2.069159e-02 -2.547154e-02 -3.122996e-02 -3.796786e-02 -4.584943e-02 -5.532666e-02 -6.683275e-02 -8.033634e-02 -9.532699e-02 -1.112205e-01 -1.273164e-01 -1.415972e-01 -1.491602e-01 -1.424286e-01 -1.145412e-01 -6.446910e-02 -3.638102e-07