CRYSTAL
PRIMVEC
  5.291772   0.000000   0.000000
  0.000000   5.291772   0.000000
  0.000000   0.000000   5.291772
PRIMCOORD
3 1
 1   0.000000   0.597970   0.767307
 1   0.000000   0.597970  -0.767307
 8   0.000000   0.000000   0.000000
BEGIN_BLOCK_DATAGRID_3D
 water.wfns_0_1.rs
 BEGIN_DATAGRID_3D_water.wfns_0_1.rs
  49 49 49
    0.000000   0.000000   0.000000
    5.291772   0.000000   0.000000
    0.000000   5.291772   0.000000
    0.000000   0.000000   5.291772
  4.266082e-07 1.251194e-06 1.802700e-06 1.973075e-06 1.814880e-06 1.479700e-06 1.120356e-06 8.252498e-07 6.126536e-07 4.637069e-07 3.557784e-07 2.754516e-07 2.157070e-07 1.710010e-07 1.366089e-07 1.096710e-07 8.861583e-08 7.173730e-08 5.715509e-08 4.392105e-08 3.222541e-08 2.219624e-08 1.304157e-08 3.792225e-09 -5.521241e-09 -1.411446e-08 -2.185406e-08 -2.973515e-08 -3.861709e-08 -4.806528e-08 -5.721958e-08 -6.665229e-08 -7.840393e-08 -9.384316e-08 -1.125859e-07 -1.347979e-07 -1.640596e-07 -2.059999e-07 -2.638085e-07 -3.386822e-07 -4.391900e-07 -5.883765e-07 -8.090981e-07 -1.084270e-06 -1.321361e-06 -1.365599e-06 -1.077535e-06 -4.334849e-07 4.266082e-07
  -1.359979e-07 6.905125e-07 1.303516e-06 1.573581e-06 1.524854e-06 1.285952e-06 9.987066e-07 7.515054e-07 5.683640e-07 4.369766e-07 3.396479e-07 2.660040e-07 2.107062e-07 1.690522e-07 1.367185e-07 1.111184e-07 9.095392e-08 7.472024e-08 6.057942e-08 4.754063e-08 3.582340e-08 2.568703e-08 1.644211e-08 7.096083e-09 -2.394539e-09 -1.123952e-08 -1.923307e-08 -2.736769e-08 -3.660987e-08 -4.659952e-08 -5.639910e-08 -6.646431e-08 -7.889485e-08 -9.528287e-08 -1.153681e-07 -1.392359e-07 -1.705240e-07 -2.154448e-07 -2.780413e-07 -3.598675e-07 -4.694035e-07 -6.311450e-07 -8.737573e-07 -1.190591e-06 -1.499149e-06 -1.645461e-06 -1.475084e-06 -9.355909e-07 -1.359979e-07
  -5.580778e-07 1.842913e-07 7.817631e-07 1.103264e-06 1.149144e-06 1.016198e-06 8.210897e-07 6.409027e-07 5.005919e-07 3.947490e-07 3.127965e-07 2.490680e-07 2.005524e-07 1.635374e-07 1.342311e-07 1.105187e-07 9.155475e-08 7.615761e-08 6.261724e-08 4.995887e-08 3.845831e-08 2.850519e-08 1.948513e-08 1.031911e-08 8.107073e-10 -8.268516e-09 -1.655741e-08 -2.490748e-08 -3.432054e-08 -4.455106e-08 -5.464300e-08 -6.491824e-08 -7.749626e-08 -9.424572e-08 -1.151071e-07 -1.399282e-07 -1.719362e-07 -2.175079e-07 -2.815000e-07 -3.655504e-07 -4.758986e-07 -6.334217e-07 -8.665246e-07 -1.177221e-06 -1.501049e-06 -1.703110e-06 -1.635317e-06 -1.229172e-06 -5.580778e-07
  -7.609500e-07 -1.620931e-07 3.531909e-07 6.706152e-07 7.761129e-07 7.335966e-07 6.274447e-07 5.160960e-07 4.212051e-07 3.430735e-07 2.783816e-07 2.262969e-07 1.859905e-07 1.546204e-07 1.289981e-07 1.076361e-07 9.024229e-08 7.598980e-08 6.330768e-08 5.124582e-08 4.013791e-08 3.051141e-08 2.185049e-08 1.300491e-08 3.609210e-09 -5.599856e-09 -1.406982e-08 -2.244211e-08 -3.174203e-08 -4.191764e-08 -5.206207e-08 -6.230439e-08 -7.465362e-08 -9.123119e-08 -1.122744e-07 -1.373358e-07 -1.687948e-07 -2.126313e-07 -2.743640e-07 -3.558555e-07 -4.601725e-07 -6.009330e-07 -8.003123e-07 -1.064486e-06 -1.349520e-06 -1.551921e-06 -1.548626e-06 -1.271007e-06 -7.609500e-07
  -7.705125e-07 -3.329796e-07 6.607494e-08 3.396972e-07 4.685047e-07 4.882790e-07 4.517688e-07 3.972866e-07 3.412709e-07 2.880184e-07 2.399583e-07 1.998307e-07 1.681884e-07 1.428000e-07 1.211543e-07 1.024940e-07 8.707212e-08 7.434987e-08 6.284599e-08 5.160544e-08 4.099397e-08 3.168633e-08 2.334323e-08 1.484869e-08 5.716557e-09 -3.382388e-09 -1.175318e-08 -1.984738e-08 -2.874293e-08 -3.865793e-08 -4.878528e-08 -5.896483e-08 -7.088198e-08 -8.679787e-08 -1.073645e-07 -1.319654e-07 -1.618759e-07 -2.020413e-07 -2.582360e-07 -3.329449e-07 -4.267763e-07 -5.454749e-07 -7.017211e-07 -9.009015e-07 -1.116563e-06 -1.279406e-06 -1.300892e-06 -1.124745e-06 -7.705125e-07
  -6.699427e-07 -3.747293e-07 -9.035588e-08 1.244791e-07 2.509090e-07 3.042390e-07 3.120532e-07 2.960875e-07 2.680158e-07 2.344310e-07 2.010695e-07 1.722563e-07 1.489236e-07 1.292585e-07 1.115278e-07 9.571680e-08 8.250686e-08 7.154375e-08 6.141769e-08 5.117112e-08 4.116423e-08 3.218866e-08 2.413696e-08 1.604432e-08 7.365683e-09 -1.348636e-09 -9.358517e-09 -1.696246e-08 -2.527343e-08 -3.479189e-08 -4.485246e-08 -5.495448e-08 -6.626050e-08 -8.100231e-08 -1.003514e-07 -1.238289e-07 -1.516507e-07 -1.871740e-07 -2.356988e-07 -3.004936e-07 -3.813751e-07 -4.784363e-07 -5.953296e-07 -7.335111e-07 -8.778923e-07 -9.876881e-07 -1.007768e-06 -8.995142e-07 -6.699427e-07
  -5.380830e-07 -3.475409e-07 -1.541640e-07 5.847932e-09 1.165727e-07 1.808646e-07 2.100368e-07 2.151069e-07 2.045165e-07 1.855374e-07 1.646386e-07 1.458705e-07 1.298602e-07 1.152356e-07 1.011208e-07 8.810503e-08 7.707918e-08 6.779788e-08 5.901017e-08 4.984351e-08 4.061868e-08 3.214452e-08 2.451152e-08 1.696146e-08 8.927440e-09 7.793954e-10 -6.783148e-09 -1.388812e-08 -2.156424e-08 -3.052236e-08 -4.030581e-08 -5.015847e-08 -6.063655e-08 -7.374099e-08 -9.115491e-08 -1.128923e-07 -1.384792e-07 -1.694568e-07 -2.097917e-07 -2.630902e-07 -3.297641e-07 -4.076264e-07 -4.945264e-07 -5.876524e-07 -6.773965e-07 -7.418210e-07 -7.509410e-07 -6.824029e-07 -5.380830e-07
  -4.177269e-07 -2.946141e-07 -1.640569e-07 -4.745349e-08 4.269986e-08 1.034884e-07 1.380200e-07 1.518760e-07 1.514711e-07 1.432633e-07 1.324934e-07 1.218943e-07 1.117110e-07 1.012248e-07 9.037402e-08 8.002998e-08 7.100103e-08 6.311844e-08 5.546192e-08 4.738956e-08 3.915402e-08 3.143743e-08 2.442719e-08 1.757660e-08 1.032480e-08 2.823282e-09 -4.325081e-09 -1.102355e-08 -1.804183e-08 -2.618278e-08 -3.530167e-08 -4.461727e-08 -5.414070e-08 -6.541136e-08 -8.039707e-08 -9.980395e-08 -1.230455e-07 -1.501372e-07 -1.831567e-07 -2.251488e-07 -2.774153e-07 -3.380932e-07 -4.030883e-07 -4.671297e-07 -5.225962e-07 -5.575217e-07 -5.570555e-07 -5.101943e-07 -4.177269e-07
  -3.203312e-07 -2.382227e-07 -1.487713e-07 -6.474149e-08 4.644178e-09 5.514078e-08 8.695368e-08 1.033531e-07 1.090724e-07 1.086886e-07 1.053634e-07 1.004959e-07 9.436314e-08 8.709969e-08 7.922111e-08 7.144971e-08 6.423052e-08 5.747177e-08 5.074216e-08 4.374278e-08 3.662331e-08 2.981549e-08 2.352105e-08 1.742359e-08 1.102407e-08 4.251895e-09 -2.442113e-09 -8.729429e-09 -1.499456e-08 -2.201663e-08 -3.005350e-08 -3.857968e-08 -4.722823e-08 -5.685944e-08 -6.929177e-08 -8.582101e-08 -1.062930e-07 -1.299576e-07 -1.571204e-07 -1.894954e-07 -2.286092e-07 -2.738167e-07 -3.217166e-07 -3.669237e-07 -4.028364e-07 -4.219302e-07 -4.167407e-07 -3.825094e-07 -3.203312e-07
  -2.445026e-07 -1.882949e-07 -1.264408e-07 -6.673009e-08 -1.545047e-08 2.390953e-08 5.098658e-08 6.781620e-08 7.734914e-08 8.201033e-08 8.314906e-08 8.148642e-08 7.779066e-08 7.299446e-08 6.779977e-08 6.242514e-08 5.682368e-08 5.101473e-08 4.510936e-08 3.915064e-08 3.313789e-08 2.720056e-08 2.154474e-08 1.613966e-08 1.063025e-08 4.746182e-09 -1.288589e-09 -7.002613e-09 -1.237917e-08 -1.807200e-08 -2.473327e-08 -3.228947e-08 -4.021868e-08 -4.861782e-08 -5.870645e-08 -7.199540e-08 -8.901752e-08 -1.091309e-07 -1.316222e-07 -1.567495e-07 -1.854181e-07 -2.177310e-07 -2.517709e-07 -2.835288e-07 -3.077467e-07 -3.190307e-07 -3.130288e-07 -2.877238e-07 -2.445026e-07
  -1.869793e-07 -1.484448e-07 -1.058276e-07 -6.382018e-08 -2.635457e-08 4.180781e-09 2.727263e-08 4.384071e-08 5.518505e-08 6.213352e-08 6.510254e-08 6.480214e-08 6.255627e-08 5.970206e-08 5.674493e-08 5.331926e-08 4.900979e-08 4.401630e-08 3.891141e-08 3.395911e-08 2.896545e-08 2.378572e-08 1.866577e-08 1.389462e-08 9.316508e-09 4.498059e-09 -6.251062e-10 -5.580343e-09 -1.002278e-08 -1.438078e-08 -1.954444e-08 -2.591502e-08 -3.305539e-08 -4.047038e-08 -4.858355e-08 -5.867565e-08 -7.180872e-08 -8.796958e-08 -1.063443e-07 -1.262725e-07 -1.477124e-07 -1.706915e-07 -1.943035e-07 -2.161500e-07 -2.326304e-07 -2.398899e-07 -2.349992e-07 -2.169325e-07 -1.869793e-07
  -1.435919e-07 -1.174058e-07 -8.809129e-08 -5.834785e-08 -3.051988e-08 -6.310791e-09 1.345626e-08 2.874154e-08 3.980237e-08 4.680828e-08 5.004053e-08 5.038985e-08 4.931668e-08 4.801231e-08 4.660431e-08 4.439047e-08 4.090738e-08 3.659125e-08 3.228440e-08 2.829558e-08 2.423951e-08 1.978745e-08 1.524259e-08 1.115261e-08 7.539380e-09 3.859602e-09 -2.254024e-10 -4.349386e-09 -7.952658e-09 -1.116151e-08 -1.484827e-08 -1.973608e-08 -2.566627e-08 -3.195790e-08 -3.842779e-08 -4.585390e-08 -5.537302e-08 -6.752739e-08 -8.194469e-08 -9.780664e-08 -1.144424e-07 -1.314175e-07 -1.481035e-07 -1.631739e-07 -1.744797e-07 -1.794985e-07 -1.762077e-07 -1.639229e-07 -1.435919e-07
  -1.088925e-07 -9.112530e-08 -7.085433e-08 -4.959821e-08 -2.879421e-08 -9.823435e-09 6.229014e-09 1.883395e-08 2.796407e-08 3.384903e-08 3.692895e-08 3.800116e-08 3.809145e-08 3.787021e-08 3.719274e-08 3.543689e-08 3.239518e-08 2.869027e-08 2.517851e-08 2.206872e-08 1.886684e-08 1.519405e-08 1.138729e-08 8.094750e-09 5.426482e-09 2.809976e-09 -2.518528e-10 -3.530206e-09 -6.392134e-09 -8.680163e-09 -1.102410e-08 -1.420906e-08 -1.840491e-08 -2.317318e-08 -2.817263e-08 -3.370199e-08 -4.052187e-08 -4.924329e-08 -5.991326e-08 -7.205536e-08 -8.495517e-08 -9.788708e-08 -1.101399e-07 -1.208530e-07 -1.288161e-07 -1.325140e-07 -1.305934e-07 -1.225206e-07 -1.088925e-07
  -7.887386e-08 -6.688894e-08 -5.304524e-08 -3.823651e-08 -2.336903e-08 -9.541296e-09 2.197999e-09 1.131402e-08 1.793101e-08 2.252034e-08 2.553806e-08 2.734835e-08 2.827195e-08 2.847493e-08 2.782953e-08 2.610736e-08 2.343149e-08 2.041344e-08 1.767577e-08 1.527336e-08 1.275825e-08 9.854324e-09 6.895804e-09 4.455662e-09 2.636306e-09 9.402965e-10 -1.112797e-09 -3.411861e-09 -5.428912e-09 -6.887985e-09 -8.104948e-09 -9.664381e-09 -1.191086e-08 -1.483476e-08 -1.834696e-08 -2.252104e-08 -2.757677e-08 -3.374183e-08 -4.114960e-08 -4.974392e-08 -5.916844e-08 -6.877097e-08 -7.778860e-08 -8.551518e-08 -9.123531e-08 -9.407170e-08 -9.312317e-08 -8.794003e-08 -7.887386e-08
  -5.316888e-08 -4.543641e-08 -3.652361e-08 -2.698657e-08 -1.732370e-08 -8.246456e-09 -5.278226e-10 5.468867e-09 9.987186e-09 1.352426e-08 1.633157e-08 1.830438e-08 1.926036e-08 1.918284e-08 1.820377e-08 1.651331e-08 1.438131e-08 1.216010e-08 1.009932e-08 8.146469e-09 6.059132e-09 3.780771e-09 1.620332e-09 -3.422572e-11 -1.138113e-09 -2.020110e-09 -2.990531e-09 -4.022703e-09 -4.866372e-09 -5.383057e-09 -5.681066e-09 -5.988118e-09 -6.539465e-09 -7.609056e-09 -9.494825e-09 -1.233813e-08 -1.600148e-08 -2.024917e-08 -2.505431e-08 -3.060565e-08 -3.694544e-08 -4.367857e-08 -5.011817e-08 -5.564922e-08 -5.982441e-08 -6.214502e-08 -6.198453e-08 -5.892830e-08 -5.316888e-08
  -3.314596e-08 -2.869566e-08 -2.356636e-08 -1.810262e-08 -1.246785e-08 -6.983341e-09 -2.138169e-09 1.772155e-09 4.866508e-09 7.423559e-09 9.462476e-09 1.068894e-08 1.085554e-08 1.007835e-08 8.761405e-09 7.281042e-09 5.794489e-09 4.284502e-09 2.679302e-09 9.278536e-10 -9.364691e-10 -2.739440e-09 -4.217318e-09 -5.189811e-09 -5.674629e-09 -5.798296e-09 -5.631174e-09 -5.183346e-09 -4.543421e-09 -3.897651e-09 -3.342653e-09 -2.774057e-09 -2.103188e-09 -1.577756e-09 -1.733590e-09 -2.930539e-09 -5.013558e-09 -7.550263e-09 -1.036960e-08 -1.371771e-08 -1.783515e-08 -2.250838e-08 -2.715215e-08 -3.125169e-08 -3.454877e-08 -3.678807e-08 -3.750463e-08 -3.627268e-08 -3.314596e-08
  -1.834006e-08 -1.637750e-08 -1.396863e-08 -1.133475e-08 -8.441821e-09 -5.359816e-09 -2.409757e-09 6.905503e-11 1.963076e-09 3.303345e-09 4.022601e-09 3.943072e-09 3.040351e-09 1.621883e-09 1.541572e-10 -1.085911e-09 -2.165065e-09 -3.335577e-09 -4.769416e-09 -6.417038e-09 -8.041079e-09 -9.353639e-09 -1.017066e-08 -1.048230e-08 -1.036032e-08 -9.782988e-09 -8.611468e-09 -6.816768e-09 -4.699374e-09 -2.748436e-09 -1.202035e-09 1.781635e-10 1.775602e-09 3.571300e-09 5.045994e-09 5.673448e-09 5.402752e-09 4.544940e-09 3.257161e-09 1.328815e-09 -1.459756e-09 -4.913565e-09 -8.506059e-09 -1.182864e-08 -1.478059e-08 -1.727622e-08 -1.894816e-08 -1.933342e-08 -1.834006e-08
  -5.998536e-09 -5.915814e-09 -5.490481e-09 -4.895197e-09 -4.055547e-09 -2.949625e-09 -1.793292e-09 -9.074825e-10 -5.009838e-10 -6.413101e-10 -1.354373e-09 -2.624567e-09 -4.283056e-09 -6.002376e-09 -7.495236e-09 -8.722576e-09 -9.876149e-09 -1.116137e-08 -1.260691e-08 -1.404406e-08 -1.521036e-08 -1.588073e-08 -1.597371e-08 -1.557124e-08 -1.478803e-08 -1.357387e-08 -1.169561e-08 -9.014390e-09 -5.787781e-09 -2.585278e-09 1.877644e-10 2.643725e-09 5.202389e-09 8.034525e-09 1.080801e-08 1.300889e-08 1.439826e-08 1.504710e-08 1.499912e-08 1.410152e-08 1.225545e-08 9.706092e-09 6.919538e-09 4.181943e-09 1.465068e-09 -1.256617e-09 -3.684098e-09 -5.335843e-09 -5.998536e-09
  5.924414e-09 4.459379e-09 3.195965e-09 1.988419e-09 8.623850e-10 -1.582164e-10 -1.167072e-09 -2.307841e-09 -3.667671e-09 -5.271852e-09 -7.116756e-09 -9.134961e-09 -1.115565e-08 -1.299232e-08 -1.460714e-08 -1.614064e-08 -1.773482e-08 -1.934760e-08 -2.077076e-08 -2.179768e-08 -2.232167e-08 -2.229753e-08 -2.170597e-08 -2.059851e-08 -1.909585e-08 -1.723997e-08 -1.486564e-08 -1.173502e-08 -7.860763e-09 -3.629788e-09 4.804437e-10 4.296657e-09 7.992710e-09 1.174377e-08 1.542656e-08 1.870169e-08 2.130351e-08 2.314346e-08 2.416750e-08 2.427319e-08 2.345850e-08 2.196659e-08 2.014359e-08 1.813694e-08 1.583602e-08 1.316519e-08 1.036040e-08 7.858870e-09 5.924414e-09
  1.664846e-08 1.381479e-08 1.100878e-08 8.147581e-09 5.200031e-09 2.153475e-09 -9.677796e-10 -4.063109e-09 -7.007562e-09 -9.765756e-09 -1.240389e-08 -1.496078e-08 -1.736293e-08 -1.953130e-08 -2.153821e-08 -2.355386e-08 -2.559546e-08 -2.739989e-08 -2.862235e-08 -2.913858e-08 -2.907787e-08 -2.856705e-08 -2.754667e-08 -2.589918e-08 -2.367524e-08 -2.106125e-08 -1.810756e-08 -1.460401e-08 -1.031887e-08 -5.331512e-09 -4.868380e-11 5.111182e-09 9.985302e-09 1.461196e-08 1.899840e-08 2.301703e-08 2.649032e-08 2.928081e-08 3.128210e-08 3.241276e-08 3.269322e-08 3.229087e-08 3.140084e-08 3.006478e-08 2.816794e-08 2.565219e-08 2.269236e-08 1.961353e-08 1.664846e-08
  2.421152e-08 2.024781e-08 1.621224e-08 1.212539e-08 7.923900e-09 3.528727e-09 -9.957030e-10 -5.390942e-09 -9.388724e-09 -1.295201e-08 -1.627523e-08 -1.952936e-08 -2.267307e-08 -2.556402e-08 -2.818617e-08 -3.064025e-08 -3.288787e-08 -3.462802e-08 -3.554503e-08 -3.565007e-08 -3.525609e-08 -3.457525e-08 -3.343448e-08 -3.147901e-08 -2.861319e-08 -2.512140e-08 -2.132184e-08 -1.719579e-08 -1.245044e-08 -6.924211e-09 -8.467147e-10 5.314955e-09 1.119731e-08 1.669283e-08 2.183107e-08 2.660066e-08 3.089384e-08 3.455298e-08 3.742625e-08 3.941221e-08 4.050312e-08 4.078357e-08 4.034993e-08 3.922263e-08 3.736282e-08 3.478211e-08 3.160879e-08 2.803268e-08 2.421152e-08
  2.853651e-08 2.377675e-08 1.893220e-08 1.411906e-08 9.264700e-09 4.217686e-09 -9.973358e-10 -6.092356e-09 -1.075876e-08 -1.498417e-08 -1.904767e-08 -2.317361e-08 -2.725878e-08 -3.099761e-08 -3.421374e-08 -3.695028e-08 -3.922618e-08 -4.084610e-08 -4.158207e-08 -4.150375e-08 -4.097129e-08 -4.021773e-08 -3.901294e-08 -3.685370e-08 -3.349196e-08 -2.919465e-08 -2.445096e-08 -1.949126e-08 -1.415949e-08 -8.222501e-09 -1.714284e-09 5.045998e-09 1.170145e-08 1.805747e-08 2.406589e-08 2.969012e-08 3.481577e-08 3.925711e-08 4.281649e-08 4.535284e-08 4.682790e-08 4.729666e-08 4.684388e-08 4.553050e-08 4.340432e-08 4.054126e-08 3.704470e-08 3.301064e-08 2.853651e-08
  3.174362e-08 2.648011e-08 2.108937e-08 1.572566e-08 1.033126e-08 4.736060e-09 -1.069335e-09 -6.816268e-09 -1.218813e-08 -1.715119e-08 -2.196706e-08 -2.683890e-08 -3.161285e-08 -3.590139e-08 -3.946389e-08 -4.236021e-08 -4.470986e-08 -4.641779e-08 -4.725808e-08 -4.720073e-08 -4.651265e-08 -4.544773e-08 -4.389224e-08 -4.142169e-08 -3.773213e-08 -3.296100e-08 -2.755684e-08 -2.187921e-08 -1.596779e-08 -9.664385e-09 -2.881171e-09 4.269253e-09 1.154091e-08 1.868193e-08 2.550025e-08 3.185457e-08 3.761012e-08 4.259750e-08 4.661515e-08 4.949568e-08 5.118764e-08 5.176408e-08 5.134107e-08 4.999752e-08 4.777979e-08 4.475374e-08 4.101272e-08 3.664426e-08 3.174362e-08
  3.539574e-08 2.979837e-08 2.392566e-08 1.790313e-08 1.171764e-08 5.271569e-09 -1.407872e-09 -8.052942e-09 -1.432754e-08 -2.012020e-08 -2.559372e-08 -3.090470e-08 -3.593279e-08 -4.036505e-08 -4.402991e-08 -4.704764e-08 -4.959914e-08 -5.161078e-08 -5.276399e-08 -5.282311e-08 -5.187607e-08 -5.020272e-08 -4.794652e-08 -4.498017e-08 -4.109319e-08 -3.625641e-08 -3.067727e-08 -2.463046e-08 -1.826797e-08 -1.157508e-08 -4.469698e-09 3.054079e-09 1.083429e-08 1.856015e-08 2.589788e-08 3.262708e-08 3.865899e-08 4.392233e-08 4.826200e-08 5.149094e-08 5.353903e-08 5.450422e-08 5.452726e-08 5.364061e-08 5.177477e-08 4.889736e-08 4.509993e-08 4.054694e-08 3.539574e-08
  3.856043e-08 3.275043e-08 2.648782e-08 1.983544e-08 1.284464e-08 5.545345e-09 -1.961283e-09 -9.416907e-09 -1.649623e-08 -2.302001e-08 -2.903490e-08 -3.464200e-08 -3.978426e-08 -4.427252e-08 -4.802008e-08 -5.116680e-08 -5.389752e-08 -5.614953e-08 -5.756125e-08 -5.774347e-08 -5.659444e-08 -5.435253e-08 -5.137332e-08 -4.787047e-08 -4.383188e-08 -3.912430e-08 -3.365915e-08 -2.748800e-08 -2.076875e-08 -1.364277e-08 -6.149098e-09 1.712826e-09 9.815674e-09 1.782746e-08 2.535468e-08 3.217604e-08 3.829850e-08 4.376311e-08 4.844219e-08 5.209062e-08 5.458771e-08 5.604878e-08 5.664626e-08 5.636026e-08 5.497647e-08 5.233689e-08 4.853850e-08 4.386282e-08 3.856043e-08
  3.942259e-08 3.355264e-08 2.714385e-08 2.021030e-08 1.286410e-08 5.241319e-09 -2.521282e-09 -1.023331e-08 -1.765538e-08 -2.461199e-08 -3.107284e-08 -3.707266e-08 -4.255865e-08 -4.737081e-08 -5.139409e-08 -5.468669e-08 -5.740151e-08 -5.956582e-08 -6.095859e-08 -6.122629e-08 -6.013959e-08 -5.777303e-08 -5.446871e-08 -5.061347e-08 -4.638890e-08 -4.168087e-08 -3.622954e-08 -2.990070e-08 -2.282892e-08 -1.529794e-08 -7.507379e-09 4.929859e-10 8.632149e-09 1.665522e-08 2.421623e-08 3.113039e-08 3.744895e-08 4.322998e-08 4.829031e-08 5.228030e-08 5.501377e-08 5.663572e-08 5.739612e-08 5.729949e-08 5.606695e-08 5.346114e-08 4.958148e-08 4.479521e-08 3.942259e-08
  3.824608e-08 3.245661e-08 2.612696e-08 1.926749e-08 1.202760e-08 4.583624e-09 -2.945148e-09 -1.045839e-08 -1.782380e-08 -2.491809e-08 -3.169217e-08 -3.813434e-08 -4.415078e-08 -4.951816e-08 -5.399170e-08 -5.746717e-08 -6.002901e-08 -6.183490e-08 -6.294108e-08 -6.321723e-08 -6.242624e-08 -6.042056e-08 -5.730056e-08 -5.337532e-08 -4.892031e-08 -4.394602e-08 -3.823003e-08 -3.160977e-08 -2.423071e-08 -1.647045e-08 -8.630715e-09 -7.642648e-10 7.174517e-09 1.508302e-08 2.270322e-08 2.984247e-08 3.648304e-08 4.259570e-08 4.791050e-08 5.200539e-08 5.466621e-08 5.607926e-08 5.658766e-08 5.628312e-08 5.492045e-08 5.224700e-08 4.834010e-08 4.356505e-08 3.824608e-08
  3.748649e-08 3.183311e-08 2.561022e-08 1.886437e-08 1.174713e-08 4.414283e-09 -3.033867e-09 -1.050624e-08 -1.787779e-08 -2.503647e-08 -3.194720e-08 -3.861344e-08 -4.495207e-08 -5.072096e-08 -5.559173e-08 -5.931579e-08 -6.185566e-08 -6.338906e-08 -6.417368e-08 -6.434600e-08 -6.379926e-08 -6.226625e-08 -5.956355e-08 -5.576596e-08 -5.111825e-08 -4.578002e-08 -3.971364e-08 -3.286339e-08 -2.539989e-08 -1.769801e-08 -1.004687e-08 -2.445246e-09 5.261278e-09 1.307923e-08 2.077781e-08 2.808578e-08 3.486599e-08 4.102107e-08 4.629733e-08 5.032824e-08 5.293159e-08 5.428968e-08 5.474604e-08 5.443203e-08 5.316179e-08 5.070472e-08 4.709047e-08 4.259699e-08 3.748649e-08
  3.870085e-08 3.321160e-08 2.705194e-08 2.031305e-08 1.310660e-08 5.522759e-09 -2.331685e-09 -1.026115e-08 -1.800670e-08 -2.537700e-08 -3.233627e-08 -3.893989e-08 -4.518750e-08 -5.094058e-08 -5.595432e-08 -5.996798e-08 -6.280533e-08 -6.446774e-08 -6.515763e-08 -6.514894e-08 -6.455346e-08 -6.320076e-08 -6.078948e-08 -5.717569e-08 -5.249116e-08 -4.698377e-08 -4.081033e-08 -3.404307e-08 -2.683174e-08 -1.943837e-08 -1.205221e-08 -4.633484e-09 2.966349e-09 1.072461e-08 1.835339e-08 2.550378e-08 3.199723e-08 3.780074e-08 4.282822e-08 4.688030e-08 4.981707e-08 5.171225e-08 5.275171e-08 5.298969e-08 5.227282e-08 5.042128e-08 4.743169e-08 4.346841e-08 3.870085e-08
  4.052993e-08 3.534564e-08 2.940200e-08 2.282282e-08 1.565392e-08 7.888038e-09 -3.766545e-10 -8.829201e-09 -1.705385e-08 -2.475787e-08 -3.187261e-08 -3.844795e-08 -4.450781e-08 -5.002471e-08 -5.495403e-08 -5.919541e-08 -6.252771e-08 -6.468982e-08 -6.560301e-08 -6.547788e-08 -6.462064e-08 -6.311925e-08 -6.077110e-08 -5.733907e-08 -5.283042e-08 -4.749106e-08 -4.157966e-08 -3.522608e-08 -2.849746e-08 -2.149461e-08 -1.431157e-08 -6.955820e-09 5.830445e-10 8.159728e-09 1.544060e-08 2.210579e-08 2.806510e-08 3.343160e-08 3.829885e-08 4.259833e-08 4.617472e-08 4.892653e-08 5.081678e-08 5.178106e-08 5.170241e-08 5.049701e-08 4.818165e-08 4.483464e-08 4.052993e-08
  4.090154e-08 3.630259e-08 3.091246e-08 2.489174e-08 1.825264e-08 1.090507e-08 2.892826e-09 -5.469162e-09 -1.374841e-08 -2.165867e-08 -2.911483e-08 -3.605770e-08 -4.234343e-08 -4.786880e-08 -5.271723e-08 -5.703606e-08 -6.073989e-08 -6.344279e-08 -6.478000e-08 -6.477008e-08 -6.377852e-08 -6.212190e-08 -5.978569e-08 -5.656232e-08 -5.238871e-08 -4.745979e-08 -4.203125e-08 -3.620779e-08 -2.996148e-08 -2.328830e-08 -1.627792e-08 -9.064385e-09 -1.798407e-09 5.313625e-09 1.202393e-08 1.817345e-08 2.379966e-08 2.906228e-08 3.404486e-08 3.864602e-08 4.265288e-08 4.587162e-08 4.817240e-08 4.946772e-08 4.971730e-08 4.895024e-08 4.722562e-08 4.455375e-08 4.090154e-08
  4.073467e-08 3.701730e-08 3.240424e-08 2.711826e-08 2.123126e-08 1.466242e-08 7.413780e-09 -2.835523e-10 -8.125416e-09 -1.597055e-08 -2.380022e-08 -3.143956e-08 -3.845968e-08 -4.447329e-08 -4.948174e-08 -5.379730e-08 -5.758657e-08 -6.058772e-08 -6.235756e-08 -6.274365e-08 -6.201095e-08 -6.051025e-08 -5.833619e-08 -5.537125e-08 -5.157892e-08 -4.712580e-08 -4.220574e-08 -3.684803e-08 -3.097108e-08 -2.458667e-08 -1.788479e-08 -1.112598e-08 -4.505888e-09 1.875825e-09 7.987920e-09 1.385840e-08 1.954982e-08 2.506743e-08 3.027356e-08 3.492837e-08 3.883181e-08 4.190711e-08 4.415199e-08 4.556569e-08 4.616044e-08 4.599371e-08 4.510426e-08 4.340810e-08 4.073467e-08
  4.378609e-08 4.119599e-08 3.737000e-08 3.258573e-08 2.704533e-08 2.078752e-08 1.386867e-08 6.503600e-09 -1.079151e-09 -8.858119e-09 -1.693158e-08 -2.515166e-08 -3.295957e-08 -3.971819e-08 -4.520465e-08 -4.968322e-08 -5.347885e-08 -5.657479e-08 -5.868393e-08 -5.962431e-08 -5.949333e-08 -5.847957e-08 -5.664224e-08 -5.396202e-08 -5.052978e-08 -4.655002e-08 -4.213993e-08 -3.722714e-08 -3.171956e-08 -2.573829e-08 -1.961275e-08 -1.364434e-08 -7.913232e-09 -2.303778e-09 3.342828e-09 9.108423e-09 1.493897e-08 2.061598e-08 2.580567e-08 3.023173e-08 3.385427e-08 3.685742e-08 3.943971e-08 4.164175e-08 4.338543e-08 4.460244e-08 4.522482e-08 4.505807e-08 4.378609e-08
  5.227198e-08 5.114008e-08 4.824554e-08 4.383490e-08 3.819501e-08 3.148913e-08 2.388974e-08 1.574166e-08 7.440045e-09 -8.494796e-10 -9.214549e-09 -1.766592e-08 -2.585646e-08 -3.322738e-08 -3.942059e-08 -4.446867e-08 -4.858376e-08 -5.186456e-08 -5.426110e-08 -5.572695e-08 -5.627096e-08 -5.586703e-08 -5.444939e-08 -5.207605e-08 -4.901825e-08 -4.557146e-08 -4.178187e-08 -3.746097e-08 -3.251372e-08 -2.718035e-08 -2.187967e-08 -1.683757e-08 -1.193306e-08 -6.896512e-09 -1.587291e-09 3.925105e-09 9.445621e-09 1.473452e-08 1.956718e-08 2.385596e-08 2.776561e-08 3.162930e-08 3.566486e-08 3.977670e-08 4.366392e-08 4.706972e-08 4.983312e-08 5.170778e-08 5.227198e-08
  6.437378e-08 6.528686e-08 6.391497e-08 6.036873e-08 5.490825e-08 4.771240e-08 3.898899e-08 2.922369e-08 1.914708e-08 9.379336e-09 1.508855e-10 -8.600649e-09 -1.692260e-08 -2.468859e-08 -3.167897e-08 -3.770342e-08 -4.263522e-08 -4.643049e-08 -4.917827e-08 -5.105999e-08 -5.215959e-08 -5.233667e-08 -5.139955e-08 -4.943466e-08 -4.686141e-08 -4.406959e-08 -4.105502e-08 -3.752847e-08 -3.338332e-08 -2.892709e-08 -2.457391e-08 -2.039254e-08 -1.608441e-08 -1.139940e-08 -6.452266e-09 -1.579013e-09 3.026784e-09 7.451207e-09 1.190682e-08 1.658376e-08 2.165949e-08 2.729604e-08 3.348825e-08 3.994407e-08 4.622552e-08 5.202035e-08 5.718242e-08 6.147285e-08 6.437378e-08
  7.815561e-08 8.192249e-08 8.280949e-08 8.079695e-08 7.613943e-08 6.901729e-08 5.957700e-08 4.827680e-08 3.604396e-08 2.398057e-08 1.287756e-08 2.962822e-09 -5.978870e-09 -1.428438e-08 -2.210453e-08 -2.925170e-08 -3.530185e-08 -3.992764e-08 -4.319341e-08 -4.547891e-08 -4.706239e-08 -4.783620e-08 -4.752998e-08 -4.618718e-08 -4.427181e-08 -4.222790e-08 -4.004249e-08 -3.738836e-08 -3.416017e-08 -3.068010e-08 -2.728973e-08 -2.389006e-08 -2.008435e-08 -1.576743e-08 -1.137960e-08 -7.452761e-09 -3.980378e-09 -3.533328e-10 4.111080e-09 9.687969e-09 1.625954e-08 2.360650e-08 3.154067e-08 3.983746e-08 4.823435e-08 5.654321e-08 6.461701e-08 7.208004e-08 7.815561e-08
  9.736238e-08 1.049003e-07 1.083597e-07 1.077066e-07 1.034378e-07 9.603863e-08 8.579964e-08 7.310481e-08 5.877049e-08 4.401546e-08 3.006162e-08 1.767617e-08 6.952369e-09 -2.543037e-09 -1.131660e-08 -1.947114e-08 -2.660224e-08 -3.220804e-08 -3.622338e-08 -3.908855e-08 -4.126066e-08 -4.275515e-08 -4.328479e-08 -4.279918e-08 -4.169785e-08 -4.042751e-08 -3.901509e-08 -3.717722e-08 -3.483966e-08 -3.231506e-08 -2.986791e-08 -2.729330e-08 -2.417159e-08 -2.052393e-08 -1.696024e-08 -1.400419e-08 -1.136189e-08 -8.038404e-09 -3.194869e-09 3.223437e-09 1.071297e-08 1.889105e-08 2.782975e-08 3.782490e-08 4.902840e-08 6.129618e-08 7.414268e-08 8.662818e-08 9.736238e-08
  1.302181e-07 1.427901e-07 1.489476e-07 1.486213e-07 1.427837e-07 1.327405e-07 1.195701e-07 1.040445e-07 8.688501e-08 6.901239e-08 5.156952e-08 3.566444e-08 2.195145e-08 1.035915e-08 2.869766e-10 -8.790322e-09 -1.685392e-08 -2.349906e-08 -2.852962e-08 -3.227047e-08 -3.522649e-08 -3.755132e-08 -3.902154e-08 -3.951658e-08 -3.932285e-08 -3.885036e-08 -3.818809e-08 -3.713914e-08 -3.566325e-08 -3.404611e-08 -3.251499e-08 -3.086794e-08 -2.872634e-08 -2.612681e-08 -2.359136e-08 -2.144598e-08 -1.920637e-08 -1.586804e-08 -1.082212e-08 -4.304771e-09 3.157446e-09 1.163538e-08 2.200153e-08 3.528312e-08 5.188180e-08 7.128242e-08 9.217032e-08 1.126001e-07 1.302181e-07
  1.810151e-07 2.009642e-07 2.110098e-07 2.106454e-07 2.012057e-07 1.851446e-07 1.650941e-07 1.431635e-07 1.206748e-07 9.835208e-08 7.679993e-08 5.685617e-08 3.942832e-08 2.493172e-08 1.297168e-08 2.724795e-09 -6.330204e-09 -1.412446e-08 -2.041154e-08 -2.528652e-08 -2.915731e-08 -3.229670e-08 -3.464319e-08 -3.610199e-08 -3.686612e-08 -3.728241e-08 -3.748211e-08 -3.733797e-08 -3.680156e-08 -3.609194e-08 -3.543246e-08 -3.473394e-08 -3.373190e-08 -3.240050e-08 -3.099726e-08 -2.958972e-08 -2.770914e-08 -2.468444e-08 -2.026572e-08 -1.464600e-08 -7.701932e-09 1.678734e-09 1.530740e-08 3.462290e-08 5.980196e-08 8.963687e-08 1.218771e-07 1.535110e-07 1.810151e-07
  2.466180e-07 2.781941e-07 2.951392e-07 2.959716e-07 2.822182e-07 2.575897e-07 2.267106e-07 1.938689e-07 1.620446e-07 1.325594e-07 1.055888e-07 8.115494e-08 5.969958e-08 4.174710e-08 2.719794e-08 1.520720e-08 4.843199e-09 -4.249515e-09 -1.190867e-08 -1.802184e-08 -2.283453e-08 -2.671323e-08 -2.982666e-08 -3.219956e-08 -3.396778e-08 -3.539157e-08 -3.661140e-08 -3.754398e-08 -3.809149e-08 -3.835301e-08 -3.853515e-08 -3.871956e-08 -3.883242e-08 -3.880602e-08 -3.861910e-08 -3.814376e-08 -3.710226e-08 -3.527267e-08 -3.256727e-08 -2.860102e-08 -2.206718e-08 -1.072280e-08 7.735941e-09 3.459659e-08 6.970012e-08 1.116466e-07 1.579239e-07 2.046586e-07 2.466180e-07
  3.275826e-07 3.775795e-07 4.049182e-07 4.073125e-07 3.875952e-07 3.516870e-07 3.065285e-07 2.586764e-07 2.132155e-07 1.729038e-07 1.381606e-07 1.081795e-07 8.231393e-08 6.053275e-08 4.280803e-08 2.847874e-08 1.646705e-08 6.026755e-09 -2.929037e-09 -1.023419e-08 -1.599867e-08 -2.063983e-08 -2.453929e-08 -2.785786e-08 -3.067569e-08 -3.314451e-08 -3.541083e-08 -3.746769e-08 -3.919064e-08 -4.052803e-08 -4.161046e-08 -4.266987e-08 -4.386893e-08 -4.517976e-08 -4.639100e-08 -4.727471e-08 -4.780935e-08 -4.814350e-08 -4.806000e-08 -4.625509e-08 -4.021256e-08 -2.703848e-08 -4.563037e-09 2.836037e-08 7.238511e-08 1.277479e-07 1.928919e-07 2.625555e-07 3.275826e-07
  4.436076e-07 5.224366e-07 5.618299e-07 5.602309e-07 5.258348e-07 4.705055e-07 4.050187e-07 3.376855e-07 2.746705e-07 2.198713e-07 1.744127e-07 1.371014e-07 1.060578e-07 8.013205e-08 5.893188e-08 4.195144e-08 2.815325e-08 1.646726e-08 6.410107e-09 -1.990326e-09 -8.769628e-09 -1.432596e-08 -1.916112e-08 -2.351982e-08 -2.739983e-08 -3.083086e-08 -3.399611e-08 -3.705312e-08 -3.993886e-08 -4.246085e-08 -4.460242e-08 -4.667437e-08 -4.907870e-08 -5.190031e-08 -5.482328e-08 -5.756888e-08 -6.035716e-08 -6.361632e-08 -6.689444e-08 -6.804756e-08 -6.380934e-08 -5.130680e-08 -2.863865e-08 6.528030e-09 5.858322e-08 1.325820e-07 2.290664e-07 3.389104e-07 4.436076e-07
  6.280074e-07 7.521328e-07 8.041071e-07 7.852162e-07 7.162014e-07 6.226388e-07 5.235665e-07 4.291805e-07 3.444196e-07 2.721485e-07 2.134267e-07 1.669094e-07 1.297289e-07 9.939673e-08 7.471829e-08 5.509457e-08 3.954175e-08 2.672397e-08 1.570408e-08 6.258886e-09 -1.606030e-09 -8.201141e-09 -1.406523e-08 -1.949243e-08 -2.439469e-08 -2.867729e-08 -3.257729e-08 -3.648121e-08 -4.046905e-08 -4.423776e-08 -4.758233e-08 -5.083767e-08 -5.464076e-08 -5.923083e-08 -6.422221e-08 -6.928738e-08 -7.488366e-08 -8.175925e-08 -8.938808e-08 -9.517805e-08 -9.574984e-08 -8.874281e-08 -7.194332e-08 -3.923481e-08 2.198255e-08 1.259458e-07 2.763933e-07 4.559896e-07 6.280074e-07
  8.903409e-07 1.085220e-06 1.155604e-06 1.105655e-06 9.763063e-07 8.173580e-07 6.639449e-07 5.305025e-07 4.186387e-07 3.267160e-07 2.534080e-07 1.966022e-07 1.526545e-07 1.178280e-07 8.986643e-08 6.776849e-08 5.050085e-08 3.652544e-08 2.452075e-08 1.402851e-08 5.102887e-09 -2.457271e-09 -9.229818e-09 -1.560571e-08 -2.146083e-08 -2.657566e-08 -3.119986e-08 -3.592029e-08 -4.096877e-08 -4.595302e-08 -5.048923e-08 -5.494707e-08 -6.022803e-08 -6.675754e-08 -7.408927e-08 -8.185536e-08 -9.082100e-08 -1.022288e-07 -1.157700e-07 -1.288529e-07 -1.385950e-07 -1.435924e-07 -1.406973e-07 -1.172289e-07 -4.728464e-08 9.810337e-08 3.283173e-07 6.140391e-07 8.903409e-07