CRYSTAL
PRIMVEC
  5.291772   0.000000   0.000000
  0.000000   5.291772   0.000000
  0.000000   0.000000   5.291772
PRIMCOORD
3 1
 1   0.000000   0.597970   0.767307
 1   0.000000   0.597970  -0.767307
 8   0.000000   0.000000   0.000000
BEGIN_BLOCK_DATAGRID_3D
 water.wfns_0_2.rs
 BEGIN_DATAGRID_3D_water.wfns_0_2.rs
  49 49 49
    0.000000   0.000000   0.000000
    5.291772   0.000000   0.000000
    0.000000   5.291772   0.000000
    0.000000   0.000000   5.291772
  1.892280e-01 1.839630e-01 1.690856e-01 1.471334e-01 1.216358e-01 9.619864e-02 7.359506e-02 5.523353e-02 4.120974e-02 3.081618e-02 2.314320e-02 1.744703e-02 1.321467e-02 1.007642e-02 7.737169e-03 5.972954e-03 4.638216e-03 3.640008e-03 2.899789e-03 2.343313e-03 1.918839e-03 1.607628e-03 1.406302e-03 1.301992e-03 1.271308e-03 1.301981e-03 1.406281e-03 1.607596e-03 1.918796e-03 2.343256e-03 2.899718e-03 3.639922e-03 4.638112e-03 5.972829e-03 7.737018e-03 1.007624e-02 1.321445e-02 1.744676e-02 2.314287e-02 3.081576e-02 4.120921e-02 5.523286e-02 7.359418e-02 9.619752e-02 1.216344e-01 1.471319e-01 1.690844e-01 1.839623e-01 1.892280e-01
  1.275318e-03 4.673544e-03 1.325543e-02 2.315541e-02 3.045980e-02 3.311708e-02 3.142345e-02 2.712650e-02 2.209292e-02 1.747998e-02 1.367528e-02 1.065147e-02 8.281823e-03 6.448112e-03 5.037039e-03 3.944853e-03 3.099773e-03 2.459265e-03 1.982993e-03 1.622557e-03 1.341460e-03 1.131757e-03 9.992646e-04 9.362711e-04 9.196395e-04 9.362602e-04 9.992434e-04 1.131726e-03 1.341417e-03 1.622501e-03 1.982922e-03 2.459179e-03 3.099670e-03 3.944728e-03 5.036888e-03 6.447930e-03 8.281604e-03 1.065121e-02 1.367494e-02 1.747957e-02 2.209240e-02 2.712584e-02 3.142259e-02 3.311598e-02 3.045850e-02 2.315405e-02 1.325426e-02 4.672863e-03 1.275318e-03
  -1.541500e-01 -1.440099e-01 -1.171225e-01 -8.221842e-02 -4.888577e-02 -2.353257e-02 -7.849865e-03 2.916909e-05 3.181006e-03 4.086364e-03 4.089130e-03 3.733254e-03 3.239586e-03 2.732991e-03 2.274150e-03 1.872475e-03 1.528055e-03 1.250826e-03 1.041385e-03 8.790839e-04 7.437765e-04 6.386868e-04 5.783499e-04 5.592418e-04 5.576251e-04 5.592310e-04 5.783289e-04 6.386555e-04 7.437338e-04 8.790280e-04 1.041315e-03 1.250741e-03 1.527953e-03 1.872353e-03 2.274002e-03 2.732812e-03 3.239371e-03 3.732993e-03 4.088807e-03 4.085964e-03 3.180509e-03 2.854655e-05 -7.850653e-03 -2.353355e-02 -4.888692e-02 -8.221962e-02 -1.171235e-01 -1.440105e-01 -1.541500e-01
  -2.471036e-01 -2.335865e-01 -1.974616e-01 -1.497264e-01 -1.026278e-01 -6.466138e-02 -3.857264e-02 -2.263819e-02 -1.344154e-02 -8.062019e-03 -4.786642e-03 -2.780102e-03 -1.577485e-03 -8.555176e-04 -4.129802e-04 -1.519243e-04 -1.259584e-05 6.320393e-05 1.144679e-04 1.455295e-04 1.508011e-04 1.445282e-04 1.508778e-04 1.717024e-04 1.836516e-04 1.716918e-04 1.508572e-04 1.444975e-04 1.507591e-04 1.454747e-04 1.143994e-04 6.312104e-05 -1.269504e-05 -1.520434e-04 -4.131238e-04 -8.556898e-04 -1.577691e-03 -2.780351e-03 -4.786946e-03 -8.062391e-03 -1.344199e-02 -2.263875e-02 -3.857333e-02 -6.466220e-02 -1.026288e-01 -1.497273e-01 -1.974624e-01 -2.335870e-01 -2.471036e-01
  -2.755508e-01 -2.620110e-01 -2.256878e-01 -1.772603e-01 -1.286504e-01 -8.821727e-02 -5.886388e-02 -3.927260e-02 -2.651422e-02 -1.804700e-02 -1.232141e-02 -8.467761e-03 -5.888362e-03 -4.127881e-03 -2.896957e-03 -2.043801e-03 -1.465457e-03 -1.063030e-03 -7.658310e-04 -5.512296e-04 -4.145555e-04 -3.316772e-04 -2.678166e-04 -2.138384e-04 -1.908467e-04 -2.138486e-04 -2.678367e-04 -3.317072e-04 -4.145965e-04 -5.512829e-04 -7.658975e-04 -1.063110e-03 -1.465553e-03 -2.043916e-03 -2.897095e-03 -4.128045e-03 -5.888557e-03 -8.467993e-03 -1.232169e-02 -1.804733e-02 -2.651463e-02 -3.927308e-02 -5.886445e-02 -8.821793e-02 -1.286511e-01 -1.772611e-01 -2.256884e-01 -2.620114e-01 -2.755508e-01
  -2.588569e-01 -2.475118e-01 -2.169560e-01 -1.758324e-01 -1.337876e-01 -9.763602e-02 -6.990996e-02 -4.989035e-02 -3.563362e-02 -2.542781e-02 -1.815856e-02 -1.305803e-02 -9.482162e-03 -6.919915e-03 -5.054545e-03 -3.714953e-03 -2.769193e-03 -2.085446e-03 -1.569781e-03 -1.189055e-03 -9.329971e-04 -7.696312e-04 -6.545186e-04 -5.714733e-04 -5.389135e-04 -5.714832e-04 -6.545380e-04 -7.696604e-04 -9.330368e-04 -1.189107e-03 -1.569845e-03 -2.085524e-03 -2.769285e-03 -3.715062e-03 -5.054675e-03 -6.920068e-03 -9.482343e-03 -1.305824e-02 -1.815881e-02 -2.542810e-02 -3.563397e-02 -4.989076e-02 -6.991043e-02 -9.763654e-02 -1.337882e-01 -1.758330e-01 -2.169565e-01 -2.475120e-01 -2.588569e-01
  -2.224008e-01 -2.140005e-01 -1.912305e-01 -1.601298e-01 -1.274621e-01 -9.810110e-02 -7.408972e-02 -5.535673e-02 -4.101309e-02 -3.019574e-02 -2.222016e-02 -1.644315e-02 -1.223914e-02 -9.118409e-03 -6.791466e-03 -5.092200e-03 -3.868471e-03 -2.963558e-03 -2.269770e-03 -1.750061e-03 -1.391243e-03 -1.155405e-03 -9.916371e-04 -8.799641e-04 -8.378513e-04 -8.799735e-04 -9.916559e-04 -1.155433e-03 -1.391281e-03 -1.750111e-03 -2.269832e-03 -2.963632e-03 -3.868559e-03 -5.092303e-03 -6.791588e-03 -9.118552e-03 -1.223930e-02 -1.644334e-02 -2.222038e-02 -3.019600e-02 -4.101339e-02 -5.535707e-02 -7.409010e-02 -9.810150e-02 -1.274625e-01 -1.601302e-01 -1.912308e-01 -2.140007e-01 -2.224008e-01
  -1.846017e-01 -1.788146e-01 -1.629591e-01 -1.407937e-01 -1.165974e-01 -9.361709e-02 -7.351474e-02 -5.674705e-02 -4.321808e-02 -3.265240e-02 -2.464421e-02 -1.865592e-02 -1.413882e-02 -1.068842e-02 -8.075317e-03 -6.146718e-03 -4.735625e-03 -3.671940e-03 -2.845943e-03 -2.221659e-03 -1.782793e-03 -1.486177e-03 -1.278189e-03 -1.139231e-03 -1.087880e-03 -1.139240e-03 -1.278208e-03 -1.486204e-03 -1.782830e-03 -2.221706e-03 -2.846001e-03 -3.672010e-03 -4.735707e-03 -6.146815e-03 -8.075430e-03 -1.068855e-02 -1.413897e-02 -1.865610e-02 -2.464441e-02 -3.265262e-02 -4.321834e-02 -5.674733e-02 -7.351504e-02 -9.361740e-02 -1.165977e-01 -1.407940e-01 -1.629593e-01 -1.788147e-01 -1.846017e-01
  -1.528978e-01 -1.489677e-01 -1.380401e-01 -1.223014e-01 -1.043436e-01 -8.633385e-02 -6.967734e-02 -5.512248e-02 -4.298362e-02 -3.325944e-02 -2.568012e-02 -1.981304e-02 -1.523733e-02 -1.166675e-02 -8.934139e-03 -6.894617e-03 -5.373339e-03 -4.204112e-03 -3.288931e-03 -2.596166e-03 -2.104132e-03 -1.764092e-03 -1.522633e-03 -1.362959e-03 -1.304743e-03 -1.362967e-03 -1.522651e-03 -1.764118e-03 -2.104168e-03 -2.596211e-03 -3.288986e-03 -4.204178e-03 -5.373417e-03 -6.894707e-03 -8.934243e-03 -1.166687e-02 -1.523747e-02 -1.981319e-02 -2.568029e-02 -3.325963e-02 -4.298383e-02 -5.512271e-02 -6.967758e-02 -8.633409e-02 -1.043438e-01 -1.223016e-01 -1.380403e-01 -1.489678e-01 -1.528978e-01
  -1.272863e-01 -1.245326e-01 -1.167616e-01 -1.052513e-01 -9.162067e-02 -7.739491e-02 -6.376355e-02 -5.151997e-02 -4.107611e-02 -3.249892e-02 -2.559570e-02 -2.006250e-02 -1.563104e-02 -1.212580e-02 -9.419199e-03 -7.365334e-03 -5.794107e-03 -4.563125e-03 -3.597374e-03 -2.869759e-03 -2.350407e-03 -1.985668e-03 -1.725113e-03 -1.555165e-03 -1.494108e-03 -1.555173e-03 -1.725129e-03 -1.985693e-03 -2.350440e-03 -2.869801e-03 -3.597426e-03 -4.563187e-03 -5.794180e-03 -7.365418e-03 -9.419295e-03 -1.212591e-02 -1.563117e-02 -2.006264e-02 -2.559585e-02 -3.249908e-02 -4.107629e-02 -5.152016e-02 -6.376374e-02 -7.739511e-02 -9.162085e-02 -1.052515e-01 -1.167617e-01 -1.245327e-01 -1.272863e-01
  -1.057323e-01 -1.037292e-01 -9.801620e-02 -8.939328e-02 -7.894338e-02 -6.778398e-02 -5.687061e-02 -4.687825e-02 -3.815993e-02 -3.078409e-02 -2.464103e-02 -1.957011e-02 -1.543937e-02 -1.214591e-02 -9.573943e-03 -7.576175e-03 -6.004371e-03 -4.754428e-03 -3.776648e-03 -3.044077e-03 -2.517043e-03 -2.140730e-03 -1.872009e-03 -1.700662e-03 -1.640368e-03 -1.700670e-03 -1.872024e-03 -2.140754e-03 -2.517075e-03 -3.044117e-03 -3.776697e-03 -4.754486e-03 -6.004439e-03 -7.576252e-03 -9.574030e-03 -1.214600e-02 -1.543948e-02 -1.957023e-02 -2.464116e-02 -3.078424e-02 -3.816008e-02 -4.687841e-02 -5.687076e-02 -6.778413e-02 -7.894352e-02 -8.939340e-02 -9.801629e-02 -1.037292e-01 -1.057323e-01
  -8.711885e-02 -8.564313e-02 -8.140924e-02 -7.495081e-02 -6.701936e-02 -5.842353e-02 -4.987460e-02 -4.187883e-02 -3.470625e-02 -2.843850e-02 -2.305973e-02 -1.853054e-02 -1.480631e-02 -1.181407e-02 -9.437560e-03 -7.541060e-03 -6.013588e-03 -4.791276e-03 -3.840904e-03 -3.128308e-03 -2.605315e-03 -2.222890e-03 -1.950724e-03 -1.782545e-03 -1.725013e-03 -1.782552e-03 -1.950738e-03 -2.222912e-03 -2.605345e-03 -3.128346e-03 -3.840950e-03 -4.791330e-03 -6.013651e-03 -7.541131e-03 -9.437640e-03 -1.181416e-02 -1.480641e-02 -1.853065e-02 -2.305984e-02 -2.843862e-02 -3.470638e-02 -4.187896e-02 -4.987472e-02 -5.842365e-02 -6.701947e-02 -7.495090e-02 -8.140930e-02 -8.564316e-02 -8.711885e-02
  -7.130520e-02 -7.022618e-02 -6.711815e-02 -6.234033e-02 -5.640540e-02 -4.987266e-02 -4.324104e-02 -3.687664e-02 -3.099887e-02 -2.571927e-02 -2.109496e-02 -1.715447e-02 -1.388680e-02 -1.122546e-02 -9.063055e-03 -7.294643e-03 -5.852308e-03 -4.701455e-03 -3.811150e-03 -3.135386e-03 -2.622899e-03 -2.237884e-03 -1.966165e-03 -1.804680e-03 -1.751327e-03 -1.804686e-03 -1.966179e-03 -2.237905e-03 -2.622927e-03 -3.135422e-03 -3.811192e-03 -4.701504e-03 -5.852366e-03 -7.294709e-03 -9.063128e-03 -1.122555e-02 -1.388689e-02 -1.715456e-02 -2.109507e-02 -2.571938e-02 -3.099898e-02 -3.687675e-02 -4.324115e-02 -4.987276e-02 -5.640548e-02 -6.234040e-02 -6.711820e-02 -7.022621e-02 -7.130520e-02
  -5.821115e-02 -5.742630e-02 -5.515653e-02 -5.163789e-02 -4.720833e-02 -4.224168e-02 -3.708406e-02 -3.201156e-02 -2.722013e-02 -2.284090e-02 -1.895909e-02 -1.561704e-02 -1.280510e-02 -1.046430e-02 -8.515038e-03 -6.894478e-03 -5.570134e-03 -4.519905e-03 -3.705769e-03 -3.073529e-03 -2.577556e-03 -2.199182e-03 -1.937867e-03 -1.789942e-03 -1.743073e-03 -1.789948e-03 -1.937880e-03 -2.199201e-03 -2.577583e-03 -3.073562e-03 -3.705808e-03 -4.519951e-03 -5.570187e-03 -6.894538e-03 -8.515104e-03 -1.046438e-02 -1.280518e-02 -1.561713e-02 -1.895918e-02 -2.284099e-02 -2.722022e-02 -3.201165e-02 -3.708414e-02 -4.224176e-02 -4.720840e-02 -5.163794e-02 -5.515657e-02 -5.742632e-02 -5.821115e-02
  -4.744762e-02 -4.687153e-02 -4.519892e-02 -4.258401e-02 -3.924811e-02 -3.544248e-02 -3.141543e-02 -2.738699e-02 -2.353269e-02 -1.997726e-02 -1.679541e-02 -1.401510e-02 -1.162354e-02 -9.581871e-03 -7.848402e-03 -6.396623e-03 -5.212060e-03 -4.272018e-03 -3.533045e-03 -2.944267e-03 -2.473845e-03 -2.117955e-03 -1.881665e-03 -1.755649e-03 -1.717656e-03 -1.755655e-03 -1.881676e-03 -2.117973e-03 -2.473869e-03 -2.944297e-03 -3.533081e-03 -4.272061e-03 -5.212109e-03 -6.396678e-03 -7.848463e-03 -9.581936e-03 -1.162361e-02 -1.401518e-02 -1.679549e-02 -1.997734e-02 -2.353277e-02 -2.738707e-02 -3.141551e-02 -3.544255e-02 -3.924817e-02 -4.258406e-02 -4.519895e-02 -4.687155e-02 -4.744762e-02
  -3.854438e-02 -3.811488e-02 -3.686458e-02 -3.489826e-02 -3.236563e-02 -2.944104e-02 -2.630808e-02 -2.314239e-02 -2.009028e-02 -1.725168e-02 -1.467785e-02 -1.238342e-02 -1.036323e-02 -8.605523e-03 -7.099430e-03 -5.835780e-03 -4.800694e-03 -3.967209e-03 -3.296363e-03 -2.752436e-03 -2.319643e-03 -2.001126e-03 -1.798840e-03 -1.696534e-03 -1.666966e-03 -1.696539e-03 -1.798851e-03 -2.001143e-03 -2.319665e-03 -2.752464e-03 -3.296397e-03 -3.967248e-03 -4.800739e-03 -5.835830e-03 -7.099485e-03 -8.605582e-03 -1.036329e-02 -1.238349e-02 -1.467791e-02 -1.725175e-02 -2.009035e-02 -2.314246e-02 -2.630814e-02 -2.944110e-02 -3.236568e-02 -3.489830e-02 -3.686461e-02 -3.811489e-02 -3.854438e-02
  -3.116400e-02 -3.084118e-02 -2.990072e-02 -2.841795e-02 -2.649815e-02 -2.426408e-02 -2.184954e-02 -1.938772e-02 -1.699065e-02 -1.473191e-02 -1.264737e-02 -1.075225e-02 -9.057465e-03 -7.572925e-03 -6.300973e-03 -5.231385e-03 -4.343065e-03 -3.609711e-03 -3.006379e-03 -2.516029e-03 -2.132847e-03 -1.857247e-03 -1.684112e-03 -1.595799e-03 -1.569838e-03 -1.595804e-03 -1.684122e-03 -1.857263e-03 -2.132867e-03 -2.516055e-03 -3.006410e-03 -3.609747e-03 -4.343106e-03 -5.231431e-03 -6.301023e-03 -7.572979e-03 -9.057521e-03 -1.075231e-02 -1.264743e-02 -1.473197e-02 -1.699071e-02 -1.938778e-02 -2.184959e-02 -2.426413e-02 -2.649819e-02 -2.841799e-02 -2.990074e-02 -3.084119e-02 -3.116400e-02
  -2.505982e-02 -2.481787e-02 -2.411333e-02 -2.300209e-02 -2.155910e-02 -1.986922e-02 -1.802530e-02 -1.612191e-02 -1.424018e-02 -1.243534e-02 -1.073976e-02 -9.177582e-03 -7.773342e-03 -6.545544e-03 -5.495039e-03 -4.604171e-03 -3.848896e-03 -3.211551e-03 -2.683545e-03 -2.259861e-03 -1.933968e-03 -1.697020e-03 -1.539008e-03 -1.449820e-03 -1.421194e-03 -1.449825e-03 -1.539017e-03 -1.697034e-03 -1.933987e-03 -2.259885e-03 -2.683573e-03 -3.211584e-03 -3.848933e-03 -4.604212e-03 -5.495085e-03 -6.545593e-03 -7.773393e-03 -9.177635e-03 -1.073982e-02 -1.243539e-02 -1.424023e-02 -1.612196e-02 -1.802535e-02 -1.986926e-02 -2.155913e-02 -2.300212e-02 -2.411334e-02 -2.481788e-02 -2.505982e-02
  -1.998901e-02 -1.980886e-02 -1.928465e-02 -1.845786e-02 -1.738161e-02 -1.611331e-02 -1.471493e-02 -1.325095e-02 -1.177947e-02 -1.034462e-02 -8.979221e-03 -7.713145e-03 -6.574120e-03 -5.577606e-03 -4.718445e-03 -3.977114e-03 -3.336489e-03 -2.792170e-03 -2.346861e-03 -1.997261e-03 -1.728945e-03 -1.524055e-03 -1.372674e-03 -1.276602e-03 -1.243286e-03 -1.276607e-03 -1.372683e-03 -1.524068e-03 -1.728963e-03 -1.997283e-03 -2.346887e-03 -2.792200e-03 -3.336523e-03 -3.977153e-03 -4.718486e-03 -5.577650e-03 -6.574167e-03 -7.713194e-03 -8.979270e-03 -1.034467e-02 -1.177952e-02 -1.325099e-02 -1.471497e-02 -1.611335e-02 -1.738164e-02 -1.845789e-02 -1.928467e-02 -1.980887e-02 -1.998901e-02
  -1.573940e-02 -1.560570e-02 -1.521671e-02 -1.460289e-02 -1.380208e-02 -1.285365e-02 -1.179942e-02 -1.068396e-02 -9.549866e-03 -8.433148e-03 -7.364079e-03 -6.369890e-03 -5.471807e-03 -4.677352e-03 -3.978524e-03 -3.362064e-03 -2.823259e-03 -2.368578e-03 -2.004115e-03 -1.722788e-03 -1.504556e-03 -1.329645e-03 -1.191726e-03 -1.099479e-03 -1.066613e-03 -1.099483e-03 -1.191734e-03 -1.329658e-03 -1.504573e-03 -1.722808e-03 -2.004139e-03 -2.368606e-03 -2.823290e-03 -3.362100e-03 -3.978563e-03 -4.677393e-03 -5.471850e-03 -6.369934e-03 -7.364124e-03 -8.433193e-03 -9.549909e-03 -1.068401e-02 -1.179946e-02 -1.285368e-02 -1.380211e-02 -1.460291e-02 -1.521672e-02 -1.560571e-02 -1.573940e-02
  -1.216923e-02 -1.207009e-02 -1.178154e-02 -1.132584e-02 -1.073027e-02 -1.002281e-02 -9.233052e-03 -8.393171e-03 -7.535401e-03 -6.688633e-03 -5.877382e-03 -5.121395e-03 -4.432750e-03 -3.812822e-03 -3.255280e-03 -2.755475e-03 -2.317404e-03 -1.950048e-03 -1.656444e-03 -1.427501e-03 -1.247308e-03 -1.103989e-03 -9.954449e-04 -9.265242e-04 -9.028084e-04 -9.265277e-04 -9.954521e-04 -1.104000e-03 -1.247323e-03 -1.427520e-03 -1.656466e-03 -1.950074e-03 -2.317433e-03 -2.755508e-03 -3.255316e-03 -3.812860e-03 -4.432790e-03 -5.121436e-03 -5.877424e-03 -6.688674e-03 -7.535441e-03 -8.393209e-03 -9.233086e-03 -1.002284e-02 -1.073029e-02 -1.132586e-02 -1.178156e-02 -1.207010e-02 -1.216923e-02
  -9.154660e-03 -9.081933e-03 -8.870402e-03 -8.536568e-03 -8.100188e-03 -7.580847e-03 -6.999077e-03 -6.377908e-03 -5.741591e-03 -5.112651e-03 -4.509745e-03 -3.946312e-03 -3.429183e-03 -2.958766e-03 -2.532895e-03 -2.152046e-03 -1.820244e-03 -1.540126e-03 -1.308374e-03 -1.118113e-03 -9.658401e-04 -8.536346e-04 -7.829689e-04 -7.480194e-04 -7.381758e-04 -7.480227e-04 -7.829757e-04 -8.536449e-04 -9.658541e-04 -1.118130e-03 -1.308395e-03 -1.540150e-03 -1.820271e-03 -2.152076e-03 -2.532928e-03 -2.958802e-03 -3.429220e-03 -3.946351e-03 -4.509783e-03 -5.112689e-03 -5.741628e-03 -6.377943e-03 -6.999109e-03 -7.580875e-03 -8.100211e-03 -8.536586e-03 -8.870414e-03 -9.081939e-03 -9.154660e-03
  -6.530577e-03 -6.479242e-03 -6.330766e-03 -6.098337e-03 -5.796263e-03 -5.436699e-03 -5.031395e-03 -4.594531e-03 -4.142694e-03 -3.692317e-03 -3.257219e-03 -2.847528e-03 -2.469643e-03 -2.127158e-03 -1.822533e-03 -1.557624e-03 -1.331405e-03 -1.137362e-03 -9.660785e-04 -8.136942e-04 -6.879007e-04 -6.021756e-04 -5.610048e-04 -5.513265e-04 -5.516096e-04 -5.513298e-04 -5.610113e-04 -6.021854e-04 -6.879138e-04 -8.137107e-04 -9.660984e-04 -1.137385e-03 -1.331431e-03 -1.557653e-03 -1.822564e-03 -2.127191e-03 -2.469678e-03 -2.847564e-03 -3.257255e-03 -3.692353e-03 -4.142729e-03 -4.594564e-03 -5.031425e-03 -5.436725e-03 -5.796285e-03 -6.098354e-03 -6.330778e-03 -6.479247e-03 -6.530577e-03
  -4.136797e-03 -4.103412e-03 -4.008558e-03 -3.864104e-03 -3.680766e-03 -3.464357e-03 -3.218482e-03 -2.949030e-03 -2.665288e-03 -2.377541e-03 -2.094673e-03 -1.823891e-03 -1.571702e-03 -1.344436e-03 -1.147533e-03 -9.833913e-04 -8.485462e-04 -7.330974e-04 -6.257025e-04 -5.225656e-04 -4.322875e-04 -3.693735e-04 -3.401754e-04 -3.350476e-04 -3.362763e-04 -3.350509e-04 -3.401819e-04 -3.693830e-04 -4.323000e-04 -5.225813e-04 -6.257214e-04 -7.331197e-04 -8.485714e-04 -9.834191e-04 -1.147563e-03 -1.344469e-03 -1.571736e-03 -1.823926e-03 -2.094708e-03 -2.377576e-03 -2.665321e-03 -2.949062e-03 -3.218511e-03 -3.464383e-03 -3.680787e-03 -3.864121e-03 -4.008569e-03 -4.103418e-03 -4.136797e-03
  -1.898298e-03 -1.880000e-03 -1.830340e-03 -1.760390e-03 -1.678239e-03 -1.585018e-03 -1.478575e-03 -1.359214e-03 -1.231159e-03 -1.099708e-03 -9.686599e-04 -8.406626e-04 -7.188645e-04 -6.073395e-04 -5.100753e-04 -4.296538e-04 -3.660332e-04 -3.156527e-04 -2.722141e-04 -2.301195e-04 -1.884662e-04 -1.515259e-04 -1.246446e-04 -1.097346e-04 -1.052010e-04 -1.097379e-04 -1.246510e-04 -1.515352e-04 -1.884784e-04 -2.301348e-04 -2.722326e-04 -3.156746e-04 -3.660580e-04 -4.296812e-04 -5.101050e-04 -6.073713e-04 -7.188979e-04 -8.406969e-04 -9.686945e-04 -1.099742e-03 -1.231192e-03 -1.359245e-03 -1.478603e-03 -1.585043e-03 -1.678260e-03 -1.760406e-03 -1.830351e-03 -1.880006e-03 -1.898298e-03
  2.102295e-04 2.149189e-04 2.245386e-04 2.302914e-04 2.274900e-04 2.187717e-04 2.095783e-04 2.021097e-04 1.943108e-04 1.834493e-04 1.691019e-04 1.529300e-04 1.373260e-04 1.250962e-04 1.189730e-04 1.192024e-04 1.211754e-04 1.172865e-04 1.033831e-04 8.413108e-05 7.107344e-05 7.374435e-05 9.122238e-05 1.116618e-04 1.206091e-04 1.116586e-04 9.121610e-05 7.373509e-05 7.106121e-05 8.411573e-05 1.033644e-04 1.172646e-04 1.211505e-04 1.191749e-04 1.189433e-04 1.250645e-04 1.372927e-04 1.528956e-04 1.690672e-04 1.834151e-04 1.942777e-04 2.020783e-04 2.095496e-04 2.187465e-04 2.274691e-04 2.302752e-04 2.245276e-04 2.149133e-04 2.102295e-04
  2.288497e-03 2.278310e-03 2.245119e-03 2.184647e-03 2.097381e-03 1.990190e-03 1.871542e-03 1.746107e-03 1.614202e-03 1.475119e-03 1.329732e-03 1.180775e-03 1.033093e-03 8.947962e-04 7.761548e-04 6.837817e-04 6.140596e-04 5.536588e-04 4.895789e-04 4.208372e-04 3.603439e-04 3.238671e-04 3.155194e-04 3.232034e-04 3.286332e-04 3.232003e-04 3.155132e-04 3.238577e-04 3.603313e-04 4.208213e-04 4.895597e-04 5.536365e-04 6.140344e-04 6.837538e-04 7.761245e-04 8.947638e-04 1.033058e-03 1.180740e-03 1.329697e-03 1.475084e-03 1.614168e-03 1.746075e-03 1.871512e-03 1.990164e-03 2.097360e-03 2.184631e-03 2.245108e-03 2.278304e-03 2.288497e-03
  4.534611e-03 4.506297e-03 4.421004e-03 4.279864e-03 4.089116e-03 3.860298e-03 3.606384e-03 3.337858e-03 3.061983e-03 2.784015e-03 2.507608e-03 2.234665e-03 1.967222e-03 1.711225e-03 1.477701e-03 1.277823e-03 1.114993e-03 9.817859e-04 8.658656e-04 7.600383e-04 6.671802e-04 5.957362e-04 5.506871e-04 5.288913e-04 5.228951e-04 5.288883e-04 5.506807e-04 5.957264e-04 6.671668e-04 7.600215e-04 8.658457e-04 9.817628e-04 1.114967e-03 1.277794e-03 1.477669e-03 1.711191e-03 1.967187e-03 2.234628e-03 2.507571e-03 2.783978e-03 3.061947e-03 3.337824e-03 3.606353e-03 3.860271e-03 4.089093e-03 4.279847e-03 4.420992e-03 4.506291e-03 4.534611e-03
  7.113480e-03 7.064386e-03 6.918698e-03 6.681982e-03 6.364901e-03 5.982841e-03 5.553981e-03 5.097369e-03 4.631658e-03 4.173428e-03 3.734479e-03 3.319848e-03 2.929116e-03 2.560997e-03 2.217856e-03 1.906644e-03 1.635798e-03 1.410640e-03 1.230184e-03 1.087026e-03 9.706113e-04 8.728644e-04 7.931439e-04 7.386594e-04 7.190305e-04 7.386561e-04 7.931371e-04 8.728537e-04 9.705970e-04 1.087008e-03 1.230163e-03 1.410615e-03 1.635771e-03 1.906613e-03 2.217822e-03 2.560961e-03 2.929078e-03 3.319809e-03 3.734440e-03 4.173389e-03 4.631620e-03 5.097334e-03 5.553948e-03 5.982812e-03 6.364877e-03 6.681963e-03 6.918685e-03 7.064380e-03 7.113480e-03
  1.006986e-02 9.998118e-03 9.786127e-03 9.443279e-03 8.984299e-03 8.428470e-03 7.799147e-03 7.123154e-03 6.429218e-03 5.745065e-03 5.093800e-03 4.490757e-03 3.941776e-03 3.443788e-03 2.988762e-03 2.570836e-03 2.193080e-03 1.867768e-03 1.607272e-03 1.411522e-03 1.263981e-03 1.142584e-03 1.037704e-03 9.602816e-04 9.310489e-04 9.602780e-04 1.037696e-03 1.142572e-03 1.263965e-03 1.411503e-03 1.607249e-03 1.867742e-03 2.193050e-03 2.570803e-03 2.988726e-03 3.443750e-03 3.941735e-03 4.490715e-03 5.093757e-03 5.745023e-03 6.429178e-03 7.123115e-03 7.799111e-03 8.428439e-03 8.984273e-03 9.443259e-03 9.786113e-03 9.998111e-03 1.006986e-02
  1.345685e-02 1.335705e-02 1.306316e-02 1.259064e-02 1.196247e-02 1.120701e-02 1.035633e-02 9.444406e-03 8.504810e-03 7.569025e-03 6.666392e-03 5.823788e-03 5.061954e-03 4.388892e-03 3.796630e-03 3.268036e-03 2.791578e-03 2.371721e-03 2.023643e-03 1.755646e-03 1.556691e-03 1.403254e-03 1.279947e-03 1.192727e-03 1.160322e-03 1.192723e-03 1.279939e-03 1.403242e-03 1.556675e-03 1.755626e-03 2.023619e-03 2.371692e-03 2.791546e-03 3.268000e-03 3.796591e-03 4.388850e-03 5.061910e-03 5.823743e-03 6.666346e-03 7.568979e-03 8.504765e-03 9.444363e-03 1.035629e-02 1.120698e-02 1.196245e-02 1.259061e-02 1.306314e-02 1.335704e-02 1.345685e-02
  1.752512e-02 1.738438e-02 1.697118e-02 1.631123e-02 1.544358e-02 1.441601e-02 1.327944e-02 1.208159e-02 1.086162e-02 9.649560e-03 8.471596e-03 7.356702e-03 6.336661e-03 5.436293e-03 4.661286e-03 3.996192e-03 3.417322e-03 2.910491e-03 2.477601e-03 2.126819e-03 1.857946e-03 1.658974e-03 1.516492e-03 1.426948e-03 1.395802e-03 1.426944e-03 1.516483e-03 1.658960e-03 1.857928e-03 2.126797e-03 2.477574e-03 2.910460e-03 3.417287e-03 3.996153e-03 4.661243e-03 5.436247e-03 6.336613e-03 7.356653e-03 8.471545e-03 9.649509e-03 1.086157e-02 1.208154e-02 1.327940e-02 1.441597e-02 1.544355e-02 1.631121e-02 1.697116e-02 1.738438e-02 1.752512e-02
  2.267860e-02 2.247895e-02 2.189329e-02 2.096049e-02 1.974154e-02 1.831288e-02 1.675622e-02 1.514648e-02 1.354170e-02 1.197951e-02 1.048279e-02 9.071216e-03 7.770073e-03 6.608181e-03 5.605604e-03 4.761545e-03 4.054151e-03 3.453993e-03 2.940699e-03 2.509825e-03 2.166517e-03 1.913944e-03 1.746888e-03 1.653959e-03 1.624409e-03 1.653954e-03 1.746878e-03 1.913930e-03 2.166497e-03 2.509801e-03 2.940670e-03 3.453959e-03 4.054112e-03 4.761502e-03 5.605558e-03 6.608131e-03 7.770020e-03 9.071161e-03 1.048273e-02 1.197946e-02 1.354165e-02 1.514643e-02 1.675617e-02 1.831284e-02 1.974150e-02 2.096046e-02 2.189327e-02 2.247894e-02 2.267860e-02
  2.923501e-02 2.895788e-02 2.814491e-02 2.685051e-02 2.516101e-02 2.318533e-02 2.104130e-02 1.884104e-02 1.667844e-02 1.462042e-02 1.270396e-02 1.094202e-02 9.337933e-03 7.899755e-03 6.643380e-03 5.580962e-03 4.705369e-03 3.986918e-03 3.388190e-03 2.885223e-03 2.476489e-03 2.172221e-03 1.975178e-03 1.871546e-03 1.840332e-03 1.871541e-03 1.975167e-03 2.172205e-03 2.476468e-03 2.885197e-03 3.388158e-03 3.986881e-03 4.705327e-03 5.580916e-03 6.643329e-03 7.899700e-03 9.337874e-03 1.094196e-02 1.270389e-02 1.462036e-02 1.667838e-02 1.884098e-02 2.104125e-02 2.318528e-02 2.516097e-02 2.685048e-02 2.814488e-02 2.895787e-02 2.923501e-02
  3.739921e-02 3.701946e-02 3.590795e-02 3.414534e-02 3.185565e-02 2.918866e-02 2.630015e-02 2.333796e-02 2.043509e-02 1.770172e-02 1.521158e-02 1.299111e-02 1.102644e-02 9.290096e-03 7.768491e-03 6.467059e-03 5.390679e-03 4.521786e-03 3.820520e-03 3.247355e-03 2.784727e-03 2.436035e-03 2.205361e-03 2.081509e-03 2.043722e-03 2.081503e-03 2.205350e-03 2.436018e-03 2.784704e-03 3.247326e-03 3.820485e-03 4.521745e-03 5.390633e-03 6.467008e-03 7.768435e-03 9.290035e-03 1.102637e-02 1.299105e-02 1.521151e-02 1.770165e-02 2.043502e-02 2.333790e-02 2.630009e-02 2.918861e-02 3.185560e-02 3.414531e-02 3.590792e-02 3.701945e-02 3.739921e-02
  4.763380e-02 4.710107e-02 4.555022e-02 4.311602e-02 3.999689e-02 3.641703e-02 3.258903e-02 2.869596e-02 2.489566e-02 2.132787e-02 1.810345e-02 1.527957e-02 1.284798e-02 1.075646e-02 8.951315e-03 7.406475e-03 6.117908e-03 5.076581e-03 4.251583e-03 3.599534e-03 3.086643e-03 2.698860e-03 2.432611e-03 2.280997e-03 2.232456e-03 2.280991e-03 2.432599e-03 2.698841e-03 3.086618e-03 3.599502e-03 4.251545e-03 5.076537e-03 6.117857e-03 7.406418e-03 8.951252e-03 1.075639e-02 1.284791e-02 1.527950e-02 1.810337e-02 2.132779e-02 2.489558e-02 2.869589e-02 3.258896e-02 3.641697e-02 3.999683e-02 4.311598e-02 4.555019e-02 4.710105e-02 4.763380e-02
  6.097288e-02 6.019832e-02 5.795628e-02 5.447706e-02 5.009402e-02 4.517255e-02 4.003810e-02 3.493741e-02 3.004602e-02 2.549916e-02 2.140779e-02 1.784431e-02 1.481923e-02 1.228146e-02 1.015058e-02 8.357417e-03 6.862490e-03 5.645197e-03 4.682149e-03 3.937090e-03 3.368267e-03 2.942224e-03 2.641027e-03 2.459660e-03 2.398900e-03 2.459654e-03 2.641014e-03 2.942203e-03 3.368240e-03 3.937056e-03 4.682109e-03 5.645149e-03 6.862434e-03 8.357355e-03 1.015051e-02 1.228138e-02 1.481915e-02 1.784423e-02 2.140770e-02 2.549906e-02 3.004592e-02 3.493732e-02 4.003801e-02 4.517247e-02 5.009395e-02 5.447700e-02 5.795624e-02 6.019830e-02 6.097288e-02
  7.874498e-02 7.760753e-02 7.432765e-02 6.927716e-02 6.299189e-02 5.605911e-02 4.900072e-02 4.219590e-02 3.586969e-02 3.013554e-02 2.505076e-02 2.064693e-02 1.692705e-02 1.385068e-02 1.133388e-02 9.273157e-03 7.578925e-03 6.195036e-03 5.091974e-03 4.243555e-03 3.610320e-03 3.145028e-03 2.813260e-03 2.606863e-03 2.535740e-03 2.606856e-03 2.813245e-03 3.145006e-03 3.610291e-03 4.243518e-03 5.091930e-03 6.194984e-03 7.578864e-03 9.273088e-03 1.133381e-02 1.385060e-02 1.692696e-02 2.064684e-02 2.505066e-02 3.013543e-02 3.586958e-02 4.219580e-02 4.900062e-02 5.605902e-02 6.299180e-02 6.927709e-02 7.432760e-02 7.760750e-02 7.874498e-02
  1.020684e-01 1.004118e-01 9.565543e-02 8.838734e-02 7.943176e-02 6.967493e-02 5.990586e-02 5.070828e-02 4.242000e-02 3.515976e-02 2.890418e-02 2.357738e-02 1.910886e-02 1.543769e-02 1.248253e-02 1.012402e-02 8.227705e-03 6.688987e-03 5.455178e-03 4.503464e-03 3.801932e-03 3.297664e-03 2.942057e-03 2.719197e-03 2.641546e-03 2.719190e-03 2.942041e-03 3.297640e-03 3.801900e-03 4.503425e-03 5.455130e-03 6.688931e-03 8.227639e-03 1.012395e-02 1.248245e-02 1.543760e-02 1.910876e-02 2.357727e-02 2.890407e-02 3.515963e-02 4.241987e-02 5.070815e-02 5.990573e-02 6.967481e-02 7.943165e-02 8.838725e-02 9.565537e-02 1.004117e-01 1.020684e-01
  1.322376e-01 1.297940e-01 1.228418e-01 1.123857e-01 9.974248e-02 8.621830e-02 7.290218e-02 6.058370e-02 4.973367e-02 4.051441e-02 3.283859e-02 2.648913e-02 2.125152e-02 1.697952e-02 1.356761e-02 1.088945e-02 8.783414e-03 7.100435e-03 5.753521e-03 4.710752e-03 3.945123e-03 3.403969e-03 3.029844e-03 2.797734e-03 2.716986e-03 2.797725e-03 3.029828e-03 3.403944e-03 3.945089e-03 4.710710e-03 5.753470e-03 7.100374e-03 8.783343e-03 1.088937e-02 1.356752e-02 1.697941e-02 2.125141e-02 2.648901e-02 3.283846e-02 4.051426e-02 4.973352e-02 6.058354e-02 7.290202e-02 8.621814e-02 9.974234e-02 1.123855e-01 1.228417e-01 1.297939e-01 1.322376e-01
  1.721831e-01 1.684081e-01 1.578218e-01 1.423191e-01 1.242084e-01 1.055169e-01 8.767361e-02 7.155346e-02 5.763126e-02 4.606233e-02 3.670765e-02 2.921830e-02 2.320144e-02 1.836207e-02 1.452019e-02 1.153016e-02 9.218321e-03 7.406077e-03 5.970819e-03 4.859518e-03 4.041940e-03 3.467761e-03 3.077227e-03 2.838889e-03 2.756686e-03 2.838880e-03 3.077209e-03 3.467734e-03 4.041905e-03 4.859473e-03 5.970764e-03 7.406012e-03 9.218245e-03 1.153008e-02 1.452010e-02 1.836196e-02 2.320132e-02 2.921816e-02 3.670749e-02 4.606216e-02 5.763108e-02 7.155326e-02 8.767341e-02 1.055167e-01 1.242083e-01 1.423189e-01 1.578217e-01 1.684080e-01 1.721831e-01
  2.269092e-01 2.208547e-01 2.041170e-01 1.802969e-01 1.536009e-01 1.273886e-01 1.035805e-01 8.292713e-02 6.558144e-02 5.145563e-02 4.027627e-02 3.157198e-02 2.478249e-02 1.943627e-02 1.523246e-02 1.197803e-02 9.489714e-03 7.574851e-03 6.082087e-03 4.931090e-03 4.080068e-03 3.480367e-03 3.075525e-03 2.832165e-03 2.749153e-03 2.832156e-03 3.075506e-03 3.480339e-03 4.080031e-03 4.931042e-03 6.082028e-03 7.574782e-03 9.489633e-03 1.197794e-02 1.523235e-02 1.943615e-02 2.478235e-02 3.157182e-02 4.027610e-02 5.145543e-02 6.558122e-02 8.292689e-02 1.035802e-01 1.273884e-01 1.536007e-01 1.802966e-01 2.041169e-01 2.208546e-01 2.269092e-01
  2.999825e-01 2.904429e-01 2.643217e-01 2.279039e-01 1.884388e-01 1.514765e-01 1.197478e-01 9.369829e-02 7.272557e-02 5.609276e-02 4.316815e-02 3.330920e-02 2.581603e-02 2.005729e-02 1.559374e-02 1.215887e-02 9.551300e-03 7.574013e-03 6.058111e-03 4.897870e-03 4.036081e-03 3.424392e-03 3.012583e-03 2.768408e-03 2.686123e-03 2.768398e-03 3.012564e-03 3.424363e-03 4.036042e-03 4.897820e-03 6.058050e-03 7.573940e-03 9.551214e-03 1.215877e-02 1.559362e-02 2.005716e-02 2.581588e-02 3.330902e-02 4.316795e-02 5.609252e-02 7.272530e-02 9.369799e-02 1.197475e-01 1.514761e-01 1.884385e-01 2.279036e-01 2.643215e-01 2.904428e-01 2.999825e-01
  3.861131e-01 3.721969e-01 3.342652e-01 2.819409e-01 2.263457e-01 1.759359e-01 1.346293e-01 1.025376e-01 7.798556e-02 5.919334e-02 4.488655e-02 3.414142e-02 2.613199e-02 2.011217e-02 1.552396e-02 1.202024e-02 9.372859e-03 7.384841e-03 5.881879e-03 4.741505e-03 3.893154e-03 3.288337e-03 2.883309e-03 2.647153e-03 2.568744e-03 2.647143e-03 2.883289e-03 3.288308e-03 3.893114e-03 4.741453e-03 5.881815e-03 7.384764e-03 9.372769e-03 1.202014e-02 1.552384e-02 2.011202e-02 2.613182e-02 3.414123e-02 4.488632e-02 5.919307e-02 7.798524e-02 1.025373e-01 1.346289e-01 1.759354e-01 2.263452e-01 2.819404e-01 3.342648e-01 3.721967e-01 3.861131e-01