
*************** JDFTx 1.4.2  ***************

Start date and time: Sun Mar  3 22:07:18 2019
Executable jdftx with command-line: -i vibrations.in
Running on hosts (process indices):  Juans-MBP.lan1 (0)
Divided in process groups (process indices):  0 (0)
Resource initialization completed at t[s]:      0.00
Run totals: 1 processes, 12 threads, 0 GPUs


Input parsed successfully to the following command list (including defaults):

basis kpoint-dependent
coords-type Cartesian
core-overlap-check none
coulomb-interaction Isolated
coulomb-truncation-embed 0 0 0
davidson-band-ratio 1.1
dump End None
dump-name $INPUT.$VAR
elec-cutoff 20 100
elec-eigen-algo Davidson
elec-ex-corr gga-PBE
electronic-minimize  \
	dirUpdateScheme      FletcherReeves \
	linminMethod         DirUpdateRecommended \
	nIterations          100 \
	history              15 \
	knormThreshold       0 \
	energyDiffThreshold  1e-08 \
	nEnergyDiff          2 \
	alphaTstart          1 \
	alphaTmin            1e-10 \
	updateTestStepSize   yes \
	alphaTreduceFactor   0.1 \
	alphaTincreaseFactor 3 \
	nAlphaAdjustMax      3 \
	wolfeEnergy          0.0001 \
	wolfeGradient        0.9 \
	fdTest               no
exchange-regularization None
fluid None
fluid-ex-corr lda-TF lda-PZ
fluid-gummel-loop 10 1.000000e-05
fluid-minimize  \
	dirUpdateScheme      PolakRibiere \
	linminMethod         DirUpdateRecommended \
	nIterations          100 \
	history              15 \
	knormThreshold       0 \
	energyDiffThreshold  0 \
	nEnergyDiff          2 \
	alphaTstart          1 \
	alphaTmin            1e-10 \
	updateTestStepSize   yes \
	alphaTreduceFactor   0.1 \
	alphaTincreaseFactor 3 \
	nAlphaAdjustMax      3 \
	wolfeEnergy          0.0001 \
	wolfeGradient        0.9 \
	fdTest               no
fluid-solvent H2O 55.338 ScalarEOS \
	epsBulk 78.4 \
	pMol 0.92466 \
	epsInf 1.77 \
	Pvap 1.06736e-10 \
	sigmaBulk 4.62e-05 \
	Rvdw 2.61727 \
	Res 1.42
forces-output-coords Positions
initial-state H2.$VAR
ion H   0.000000000000000   0.000000000000000   0.719643787034997 1
ion H   0.000000000000000   0.000000000000000  -0.719643787034997 1
ion-species GBRV/$ID_pbe.uspp
ion-width 0
ionic-minimize  \
	dirUpdateScheme      L-BFGS \
	linminMethod         DirUpdateRecommended \
	nIterations          0 \
	history              15 \
	knormThreshold       0.0001 \
	energyDiffThreshold  1e-06 \
	nEnergyDiff          2 \
	alphaTstart          1 \
	alphaTmin            1e-10 \
	updateTestStepSize   yes \
	alphaTreduceFactor   0.1 \
	alphaTincreaseFactor 3 \
	nAlphaAdjustMax      3 \
	wolfeEnergy          0.0001 \
	wolfeGradient        0.9 \
	fdTest               no
kpoint   0.000000000000   0.000000000000   0.000000000000  1.00000000000000
kpoint-folding 1 1 1 
latt-move-scale 1 1 1
latt-scale 1 1 1 
lattice Cubic 15
lattice-minimize  \
	dirUpdateScheme      L-BFGS \
	linminMethod         DirUpdateRecommended \
	nIterations          0 \
	history              15 \
	knormThreshold       0 \
	energyDiffThreshold  1e-06 \
	nEnergyDiff          2 \
	alphaTstart          1 \
	alphaTmin            1e-10 \
	updateTestStepSize   yes \
	alphaTreduceFactor   0.1 \
	alphaTincreaseFactor 3 \
	nAlphaAdjustMax      3 \
	wolfeEnergy          0.0001 \
	wolfeGradient        0.9 \
	fdTest               no
lcao-params -1 1e-06 0.001
pcm-variant GLSSA13
spintype no-spin
subspace-rotation-factor 1 yes
symmetries automatic
symmetry-threshold 0.0001
vibrations \
	dr 0.01\
	centralDiff yes\
	useConstraints no\
	translationSym yes\
	rotationSym yes\
	omegaMin 0.0002\
	T 298\
	omegaResolution 0.0001



---------- Setting up symmetries ----------

Found 48 point-group symmetries of the bravais lattice
Found 16 space-group symmetries with basis
Applied RMS atom displacement 0 bohrs to make symmetries exact.
Applied RMS atom displacement 0 bohrs to make symmetries exact.

---------- Initializing the Grid ----------
R = 
[         15          0          0  ]
[          0         15          0  ]
[          0          0         15  ]
unit cell volume = 3375
G =
[   0.418879          0          0  ]
[          0   0.418879          0  ]
[          0          0   0.418879  ]
Minimum fftbox size, Smin = [  68  68  68  ]
Chosen fftbox size, S = [  70  70  70  ]

---------- Initializing tighter grid for wavefunction operations ----------
R = 
[         15          0          0  ]
[          0         15          0  ]
[          0          0         15  ]
unit cell volume = 3375
G =
[   0.418879          0          0  ]
[          0   0.418879          0  ]
[          0          0   0.418879  ]
Minimum fftbox size, Smin = [  64  64  64  ]
Chosen fftbox size, S = [  64  64  64  ]

---------- Exchange Correlation functional ----------
Initalized PBE GGA exchange.
Initalized PBE GGA correlation.

---------- Setting up pseudopotentials ----------
Width of ionic core gaussian charges (only for fluid interactions / plotting) set to 0

Reading pseudopotential file '/Users/juanmendezvalderrama/Documents/JDFTX/build/pseudopotentials/GBRV/h_pbe.uspp':
  Title: H.  Created by USPP 7.3.6 on 2-4-15
  Reference state energy: -0.458849.  1 valence electrons in orbitals:
    |100>  occupation: 1  eigenvalue: -0.238595
  lMax: 0  lLocal: 1  QijEcut: 6
  2 projectors sampled on a log grid with 395 points:
    l: 0  eig: -0.238595  rCut: 1.2
    l: 0  eig: 1.000000  rCut: 1.2
  Transforming local potential to a uniform radial grid of dG=0.02 with 1275 points.
  Transforming nonlocal projectors to a uniform radial grid of dG=0.02 with 432 points.
  Transforming density augmentations to a uniform radial grid of dG=0.02 with 1275 points.
  Transforming atomic orbitals to a uniform radial grid of dG=0.02 with 432 points.
  Core radius for overlap checks: 1.20 bohrs.

Initialized 1 species with 2 total atoms.

Folded 1 k-points by 1x1x1 to 1 k-points.

---------- Setting up k-points, bands, fillings ----------
No reducable k-points. 
Computing the number of bands and number of electrons
Calculating initial fillings.
nElectrons:   2.000000   nBands: 1   nStates: 1

----- Setting up reduced wavefunction bases (one per k-point) -----
average nbasis = 14363.000 , ideal nbasis = 14418.257

---------- Setting up coulomb interaction ----------
Setting up double-sized grid for truncated Coulomb potentials:
R = 
[         30          0          0  ]
[          0         30          0  ]
[          0          0         30  ]
unit cell volume = 27000
G =
[    0.20944          0          0  ]
[          0    0.20944          0  ]
[          0          0    0.20944  ]
Chosen fftbox size, S = [  140  140  140  ]
Integer grid location selected as the embedding center:
   Grid: [  0  0  0  ]
   Lattice: [  0  0  0  ]
   Cartesian: [  0  0  0  ]
Constructing Wigner-Seitz cell: 6 faces (6 quadrilaterals, 0 hexagons)
Range-separation parameter for embedded mesh potentials due to point charges: 0.583992 bohrs.
Constructing Wigner-Seitz cell: 6 faces (6 quadrilaterals, 0 hexagons)
Gaussian width for range separation: 1.58054 bohrs.
FFT grid for long-range part: [ 140 140 140 ].
Planning fourier transform ... Done.
Computing truncated long-range part in real space ... Done.
Adding short-range part in reciprocal space ... Done.

---------- Allocating electronic variables ----------
Initializing wave functions:  linear combination of atomic orbitals
H pseudo-atom occupations:   s ( 1 )
	FillingsUpdate:  mu: -0.000000000  nElectrons: 2.000000
LCAOMinimize: Iter:   0  Etot: -1.1024453757035095  |grad|_K:  3.278e-05  alpha:  1.000e+00
	FillingsUpdate:  mu: -0.000000000  nElectrons: 2.000000
LCAOMinimize: Iter:   1  Etot: -1.1024453805309538  |grad|_K:  2.776e-06  alpha:  9.983e-01  linmin:  4.813e-04  cgtest: -4.281e-02  t[s]:      4.00
	FillingsUpdate:  mu: -0.000000000  nElectrons: 2.000000
LCAOMinimize: Iter:   2  Etot: -1.1024453805532031  |grad|_K:  1.208e-07  alpha:  6.453e-01  linmin:  3.168e-05  cgtest:  1.272e-01  t[s]:      4.31
LCAOMinimize: Encountered beta<0, resetting CG.
LCAOMinimize: Converged (|Delta Etot|<1.000000e-06 for 2 iters).


---- Citations for features of the code used in this run ----

   Software package:
      R. Sundararaman, K. Letchworth-Weaver, K.A. Schwarz, D. Gunceler, Y. Ozhabes and T.A. Arias, 'JDFTx: software for joint density-functional theory', SoftwareX 6, 278 (2017)

   gga-PBE exchange-correlation functional:
      J.P. Perdew, K. Burke and M. Ernzerhof, Phys. Rev. Lett. 77, 3865 (1996)

   Pseudopotentials:
      KF Garrity, JW Bennett, KM Rabe and D Vanderbilt, Comput. Mater. Sci. 81, 446 (2014)

   Truncated Coulomb potentials:
      R. Sundararaman and T.A. Arias, Phys. Rev. B 87, 165122 (2013)

   Total energy minimization:
      T.A. Arias, M.C. Payne and J.D. Joannopoulos, Phys. Rev. Lett. 69, 1077 (1992)

This list may not be complete. Please suggest additional citations or
report any other bugs at https://github.com/shankar1729/jdftx/issues

Initialization completed successfully at t[s]:      4.31

------ Vibrations::calculate() -------
WARNING: Vibrations module is experimental. Please report bugs!
Compare results with and without symmetries and report discrepancies.
Degrees of freedom: 6 total, 3 symmetry-independent.

-------- Electronic minimization -----------
ElecMinimize: Iter:   0  Etot: -1.102445380553202  |grad|_K:  1.533e-03  alpha:  1.000e+00
ElecMinimize: Iter:   1  Etot: -1.163764966032068  |grad|_K:  2.628e-04  alpha:  1.815e+00  linmin: -4.606e-02  t[s]:      4.98
ElecMinimize: Iter:   2  Etot: -1.164987654542936  |grad|_K:  7.342e-05  alpha:  1.223e+00  linmin: -9.643e-04  t[s]:      5.27
ElecMinimize: Iter:   3  Etot: -1.165122952753045  |grad|_K:  2.574e-05  alpha:  1.749e+00  linmin:  4.927e-03  t[s]:      5.56
ElecMinimize: Iter:   4  Etot: -1.165136338771495  |grad|_K:  6.824e-06  alpha:  1.410e+00  linmin:  1.278e-04  t[s]:      5.85
ElecMinimize: Iter:   5  Etot: -1.165137237947632  |grad|_K:  1.798e-06  alpha:  1.345e+00  linmin:  1.479e-04  t[s]:      6.14
ElecMinimize: Iter:   6  Etot: -1.165137302205252  |grad|_K:  4.754e-07  alpha:  1.384e+00  linmin:  1.514e-04  t[s]:      6.44
ElecMinimize: Iter:   7  Etot: -1.165137306493174  |grad|_K:  1.080e-07  alpha:  1.321e+00  linmin:  6.832e-05  t[s]:      6.73
ElecMinimize: Iter:   8  Etot: -1.165137306694116  |grad|_K:  2.145e-08  alpha:  1.200e+00  linmin: -9.340e-05  t[s]:      7.02
ElecMinimize: Converged (|Delta Etot|<1.000000e-08 for 2 iters).
Setting wave functions to eigenvectors of Hamiltonian
Completed 1 of 7 configurations.

-------- Electronic minimization -----------
ElecMinimize: Iter:   0  Etot: -1.165134749714305  |grad|_K:  1.193e-05  alpha:  1.000e+00
ElecMinimize: Iter:   1  Etot: -1.165137298219733  |grad|_K:  9.852e-07  alpha:  1.248e+00  linmin: -7.319e-06  t[s]:      7.79
ElecMinimize: Iter:   2  Etot: -1.165137313907453  |grad|_K:  1.734e-07  alpha:  1.125e+00  linmin: -5.348e-07  t[s]:      8.09
ElecMinimize: Iter:   3  Etot: -1.165137314573784  |grad|_K:  6.750e-08  alpha:  1.543e+00  linmin:  4.255e-05  t[s]:      8.38
ElecMinimize: Iter:   4  Etot: -1.165137314664960  |grad|_K:  1.416e-08  alpha:  1.393e+00  linmin:  2.892e-04  t[s]:      8.68
ElecMinimize: Converged (|Delta Etot|<1.000000e-08 for 2 iters).
Setting wave functions to eigenvectors of Hamiltonian
Completed 2 of 7 configurations.

-------- Electronic minimization -----------
ElecMinimize: Iter:   0  Etot: -1.165127056762671  |grad|_K:  2.385e-05  alpha:  1.000e+00
ElecMinimize: Iter:   1  Etot: -1.165137249457519  |grad|_K:  1.970e-06  alpha:  1.248e+00  linmin: -1.998e-05  t[s]:      9.44
ElecMinimize: Iter:   2  Etot: -1.165137312213254  |grad|_K:  3.460e-07  alpha:  1.125e+00  linmin:  1.607e-05  t[s]:      9.74
ElecMinimize: Iter:   3  Etot: -1.165137314865760  |grad|_K:  1.345e-07  alpha:  1.543e+00  linmin:  8.249e-06  t[s]:     10.04
ElecMinimize: Iter:   4  Etot: -1.165137315228167  |grad|_K:  2.829e-08  alpha:  1.394e+00  linmin: -1.545e-06  t[s]:     10.34
ElecMinimize: Converged (|Delta Etot|<1.000000e-08 for 2 iters).
Setting wave functions to eigenvectors of Hamiltonian
Completed 3 of 7 configurations.

-------- Electronic minimization -----------
ElecMinimize: Iter:   0  Etot: -1.165132185231950  |grad|_K:  1.687e-05  alpha:  1.000e+00
ElecMinimize: Iter:   1  Etot: -1.165137281787446  |grad|_K:  1.393e-06  alpha:  1.248e+00  linmin: -9.613e-06  t[s]:     11.10
ElecMinimize: Iter:   2  Etot: -1.165137313161147  |grad|_K:  2.441e-07  alpha:  1.125e+00  linmin: -8.367e-07  t[s]:     11.40
ElecMinimize: Iter:   3  Etot: -1.165137314481245  |grad|_K:  9.484e-08  alpha:  1.543e+00  linmin:  5.529e-07  t[s]:     11.69
ElecMinimize: Iter:   4  Etot: -1.165137314661395  |grad|_K:  1.998e-08  alpha:  1.394e+00  linmin: -4.962e-05  t[s]:     11.99
ElecMinimize: Converged (|Delta Etot|<1.000000e-08 for 2 iters).
Setting wave functions to eigenvectors of Hamiltonian
Completed 4 of 7 configurations.

-------- Electronic minimization -----------
ElecMinimize: Iter:   0  Etot: -1.165127056786098  |grad|_K:  2.385e-05  alpha:  1.000e+00
ElecMinimize: Iter:   1  Etot: -1.165137249459825  |grad|_K:  1.970e-06  alpha:  1.248e+00  linmin: -1.999e-05  t[s]:     12.75
ElecMinimize: Iter:   2  Etot: -1.165137312213528  |grad|_K:  3.459e-07  alpha:  1.125e+00  linmin:  1.523e-05  t[s]:     13.05
ElecMinimize: Iter:   3  Etot: -1.165137314865780  |grad|_K:  1.345e-07  alpha:  1.543e+00  linmin: -6.717e-06  t[s]:     13.35
ElecMinimize: Iter:   4  Etot: -1.165137315228167  |grad|_K:  2.829e-08  alpha:  1.394e+00  linmin: -1.309e-05  t[s]:     13.65
ElecMinimize: Converged (|Delta Etot|<1.000000e-08 for 2 iters).
Setting wave functions to eigenvectors of Hamiltonian
Completed 5 of 7 configurations.

-------- Electronic minimization -----------
ElecMinimize: Iter:   0  Etot: -1.165110265299623  |grad|_K:  2.205e-05  alpha:  1.000e+00
ElecMinimize: Iter:   1  Etot: -1.165119174512680  |grad|_K:  2.377e-06  alpha:  1.276e+00  linmin: -7.374e-04  t[s]:     14.40
ElecMinimize: Iter:   2  Etot: -1.165119282823198  |grad|_K:  7.009e-07  alpha:  1.334e+00  linmin:  3.486e-05  t[s]:     14.70
ElecMinimize: Iter:   3  Etot: -1.165119294011221  |grad|_K:  2.317e-07  alpha:  1.586e+00  linmin:  1.795e-05  t[s]:     15.00
ElecMinimize: Iter:   4  Etot: -1.165119295083126  |grad|_K:  6.929e-08  alpha:  1.391e+00  linmin: -1.321e-04  t[s]:     15.29
ElecMinimize: Iter:   5  Etot: -1.165119295185555  |grad|_K:  2.028e-08  alpha:  1.485e+00  linmin:  8.689e-05  t[s]:     15.59
ElecMinimize: Converged (|Delta Etot|<1.000000e-08 for 2 iters).
Setting wave functions to eigenvectors of Hamiltonian
Completed 6 of 7 configurations.

-------- Electronic minimization -----------
ElecMinimize: Iter:   0  Etot: -1.165092702378681  |grad|_K:  3.726e-05  alpha:  1.000e+00
ElecMinimize: Iter:   1  Etot: -1.165118393685763  |grad|_K:  4.347e-06  alpha:  1.289e+00  linmin:  1.480e-03  t[s]:     16.35
ElecMinimize: Iter:   2  Etot: -1.165118765232054  |grad|_K:  1.329e-06  alpha:  1.369e+00  linmin: -6.122e-05  t[s]:     16.65
ElecMinimize: Iter:   3  Etot: -1.165118804489589  |grad|_K:  4.374e-07  alpha:  1.548e+00  linmin: -5.034e-05  t[s]:     16.94
ElecMinimize: Iter:   4  Etot: -1.165118808317505  |grad|_K:  1.318e-07  alpha:  1.393e+00  linmin:  5.352e-05  t[s]:     17.24
ElecMinimize: Iter:   5  Etot: -1.165118808687325  |grad|_K:  3.806e-08  alpha:  1.482e+00  linmin:  5.202e-05  t[s]:     17.54
ElecMinimize: Converged (|Delta Etot|<1.000000e-08 for 2 iters).
Setting wave functions to eigenvectors of Hamiltonian
Completed 7 of 7 configurations.

Relative symmetry error in force matrix = 3.62513e-23
Projected out 5 rotation+translation modes
0 imaginary modes, 5 modes within cutoff, 1 real modes.

Zero mode 1:
Frequency: 0.000000 Eh [ 0 cm^-1 ]
Degeneracy: 1 of 5
IR intensity: 0.0000 e^2/amu [ 0.0 km/mol ]
Displacements:
disp H   0.000000000000000   0.000000000000000   0.000000000000000
disp H   0.000000000000000   0.023329349012069   0.000000000000000

Zero mode 2:
Frequency: 0.000000 Eh [ 0 cm^-1 ]
Degeneracy: 2 of 5
IR intensity: 0.0000 e^2/amu [ 0.0 km/mol ]
Displacements:
disp H                 nan                 nan                 nan
disp H   0.023329349012069   0.000000000000000   0.000000000000000

Zero mode 3:
Frequency: 0.000000 Eh [ 0 cm^-1 ]
Degeneracy: 3 of 5
IR intensity: 0.0000 e^2/amu [ 0.0 km/mol ]
Displacements:
disp H   0.000000000000000  -0.023329349012069   0.000000000000000
disp H   0.000000000000000   0.000000000000000   0.000000000000000

Zero mode 4:
Frequency: 0.000000 Eh [ 0 cm^-1 ]
Degeneracy: 4 of 5
IR intensity: 0.0000 e^2/amu [ 0.0 km/mol ]
Displacements:
disp H   0.023329349012069   0.000000000000000   0.000000000000000
disp H   0.000000000000000   0.000000000000000   0.000000000000000

Zero mode 5:
Frequency: 0.000000 Eh [ 0 cm^-1 ]
Degeneracy: 5 of 5
IR intensity: 0.0000 e^2/amu [ 0.0 km/mol ]
Displacements:
disp H   0.000000000000000   0.000000000000000   0.016496340887102
disp H   0.000000000000000   0.000000000000000   0.016496340887102

Real mode 1:
Frequency: 0.019935 Eh [ 4375 cm^-1 ]
Degeneracy: 1 of 1
IR intensity: 0.0000 e^2/amu [ 0.0 km/mol ]
Displacements:
disp H   0.000000000000000  -0.000000000000000  -0.016496340887102
disp H   0.000000000000000   0.000000000000000   0.016496340887102

Vibrational free energy components at T = 298 K:
	ZPE:          0.009967
	Evib:         0.009967
	TSvib:        0.000000
	Avib:         0.009967

End date and time: Sun Mar  3 22:07:36 2019  (Duration: 0-0:00:17.65)
Done!
