
*************** JDFTx 1.4.2  ***************

Start date and time: Mon Mar  4 10:20:20 2019
Executable jdftx with command-line: -i totalE.in
Running on hosts (process indices):  dhcp-ccc-1230.eduroam.cornell.edu (0-3)
Divided in process groups (process indices):  0 (0)  1 (1)  2 (2)  3 (3)
Resource initialization completed at t[s]:      0.00
Run totals: 4 processes, 12 threads, 0 GPUs


Input parsed successfully to the following command list (including defaults):

basis kpoint-dependent
coords-type Lattice
core-overlap-check vector
coulomb-interaction Periodic
davidson-band-ratio 1.1
dump End State ElecDensity BandEigs EigStats
dump 
dump 
dump-name totalE.$VAR
elec-cutoff 20 100
elec-eigen-algo Davidson
elec-ex-corr gga-PBE
electronic-minimize  \
	dirUpdateScheme      FletcherReeves \
	linminMethod         DirUpdateRecommended \
	nIterations          100 \
	history              15 \
	knormThreshold       0 \
	energyDiffThreshold  1e-08 \
	nEnergyDiff          2 \
	alphaTstart          1 \
	alphaTmin            1e-10 \
	updateTestStepSize   yes \
	alphaTreduceFactor   0.1 \
	alphaTincreaseFactor 3 \
	nAlphaAdjustMax      3 \
	wolfeEnergy          0.0001 \
	wolfeGradient        0.9 \
	fdTest               no
electronic-scf  \
	nIterations	50 \
	energyDiffThreshold	1e-08 \
	residualThreshold	1e-07 \
	mixFraction	0.5 \
	qMetric	0.8 \
	history	10 \
	nEigSteps	2 \
	eigDiffThreshold	1e-08 \
	mixedVariable	Density \
	qKerker	0.8 \
	qKappa	-1 \
	verbose	no \
	mixFractionMag	1.5
exchange-regularization WignerSeitzTruncated
fluid None
fluid-ex-corr lda-TF lda-PZ
fluid-gummel-loop 10 1.000000e-05
fluid-minimize  \
	dirUpdateScheme      PolakRibiere \
	linminMethod         DirUpdateRecommended \
	nIterations          100 \
	history              15 \
	knormThreshold       0 \
	energyDiffThreshold  0 \
	nEnergyDiff          2 \
	alphaTstart          1 \
	alphaTmin            1e-10 \
	updateTestStepSize   yes \
	alphaTreduceFactor   0.1 \
	alphaTincreaseFactor 3 \
	nAlphaAdjustMax      3 \
	wolfeEnergy          0.0001 \
	wolfeGradient        0.9 \
	fdTest               no
fluid-solvent H2O 55.338 ScalarEOS \
	epsBulk 78.4 \
	pMol 0.92466 \
	epsInf 1.77 \
	Pvap 1.06736e-10 \
	sigmaBulk 4.62e-05 \
	Rvdw 2.61727 \
	Res 1.42
forces-output-coords Positions
ion Si   0.000000000000000   0.000000000000000   0.000000000000000 0
ion Si   0.250000000000000   0.250000000000000   0.250000000000000 0
ion-species GBRV/$ID_pbe.uspp
ion-width 0
ionic-minimize  \
	dirUpdateScheme      L-BFGS \
	linminMethod         DirUpdateRecommended \
	nIterations          0 \
	history              15 \
	knormThreshold       0.0001 \
	energyDiffThreshold  1e-06 \
	nEnergyDiff          2 \
	alphaTstart          1 \
	alphaTmin            1e-10 \
	updateTestStepSize   yes \
	alphaTreduceFactor   0.1 \
	alphaTincreaseFactor 3 \
	nAlphaAdjustMax      3 \
	wolfeEnergy          0.0001 \
	wolfeGradient        0.9 \
	fdTest               no
kpoint   0.000000000000   0.000000000000   0.000000000000  1.00000000000000
kpoint-folding 8 8 8 
latt-move-scale 1 1 1
latt-scale 1 1 1 
lattice Face-Centered Cubic 10.263
lattice-minimize  \
	dirUpdateScheme      L-BFGS \
	linminMethod         DirUpdateRecommended \
	nIterations          0 \
	history              15 \
	knormThreshold       0 \
	energyDiffThreshold  1e-06 \
	nEnergyDiff          2 \
	alphaTstart          1 \
	alphaTmin            1e-10 \
	updateTestStepSize   yes \
	alphaTreduceFactor   0.1 \
	alphaTincreaseFactor 3 \
	nAlphaAdjustMax      3 \
	wolfeEnergy          0.0001 \
	wolfeGradient        0.9 \
	fdTest               no
lcao-params -1 1e-06 0.001
pcm-variant GLSSA13
spintype no-spin
subspace-rotation-factor 1 yes
symmetries automatic
symmetry-threshold 0.0001



---------- Setting up symmetries ----------

Found 48 point-group symmetries of the bravais lattice
Found 48 space-group symmetries with basis
Applied RMS atom displacement 0 bohrs to make symmetries exact.

---------- Initializing the Grid ----------
R = 
[          0     5.1315     5.1315  ]
[     5.1315          0     5.1315  ]
[     5.1315     5.1315          0  ]
unit cell volume = 270.248
G =
[  -0.612217   0.612217   0.612217  ]
[   0.612217  -0.612217   0.612217  ]
[   0.612217   0.612217  -0.612217  ]
Minimum fftbox size, Smin = [  36  36  36  ]
Chosen fftbox size, S = [  36  36  36  ]

---------- Initializing tighter grid for wavefunction operations ----------
R = 
[          0     5.1315     5.1315  ]
[     5.1315          0     5.1315  ]
[     5.1315     5.1315          0  ]
unit cell volume = 270.248
G =
[  -0.612217   0.612217   0.612217  ]
[   0.612217  -0.612217   0.612217  ]
[   0.612217   0.612217  -0.612217  ]
Minimum fftbox size, Smin = [  32  32  32  ]
Chosen fftbox size, S = [  32  32  32  ]

---------- Exchange Correlation functional ----------
Initalized PBE GGA exchange.
Initalized PBE GGA correlation.

---------- Setting up pseudopotentials ----------
Width of ionic core gaussian charges (only for fluid interactions / plotting) set to 0

Reading pseudopotential file '/Users/juanmendezvalderrama/Documents/JDFTX/build/pseudopotentials/GBRV/si_pbe.uspp':
  Title: Si.  Created by USPP 7.3.6 on 14-9-2013
  Reference state energy: -4.599342.  4 valence electrons in orbitals:
    |300>  occupation: 2  eigenvalue: -0.397366
    |310>  occupation: 2  eigenvalue: -0.149981
  lMax: 2  lLocal: 3  QijEcut: 5
  6 projectors sampled on a log grid with 627 points:
    l: 0  eig: -0.397364  rCut: 1.6
    l: 0  eig: 1.000000  rCut: 1.6
    l: 1  eig: -0.149982  rCut: 1.6
    l: 1  eig: 1.000000  rCut: 1.6
    l: 2  eig: -0.100000  rCut: 1.7
    l: 2  eig: 0.100000  rCut: 1.7
  Partial core density with radius 1.45
  Transforming core density to a uniform radial grid of dG=0.02 with 1833 points.
  Transforming local potential to a uniform radial grid of dG=0.02 with 1833 points.
  Transforming nonlocal projectors to a uniform radial grid of dG=0.02 with 432 points.
  Transforming density augmentations to a uniform radial grid of dG=0.02 with 1833 points.
  Transforming atomic orbitals to a uniform radial grid of dG=0.02 with 432 points.
  Core radius for overlap checks: 1.70 bohrs.

Initialized 1 species with 2 total atoms.

Folded 1 k-points by 8x8x8 to 512 k-points.

---------- Setting up k-points, bands, fillings ----------
Reduced to 29 k-points under symmetry. 
Computing the number of bands and number of electrons
Calculating initial fillings.
nElectrons:   8.000000   nBands: 4   nStates: 29

----- Setting up reduced wavefunction bases (one per k-point) -----
average nbasis = 1155.350 , ideal nbasis = 1154.521

---------- Setting up ewald sum ----------
Optimum gaussian width for ewald sums = 2.330638 bohr.
Real space sum over 1331 unit cells with max indices [  5  5  5  ]
Reciprocal space sum over 2197 terms with max indices [  6  6  6  ]

---------- Allocating electronic variables ----------
Initializing wave functions:  linear combination of atomic orbitals
Si pseudo-atom occupations:   s ( 2 )  p ( 2 )
	FillingsUpdate:  mu: +0.265344776  nElectrons: 8.000000
LCAOMinimize: Iter:   0  Etot: -7.8865032216120348  |grad|_K:  7.723e-05  alpha:  1.000e+00
	FillingsUpdate:  mu: +0.265272526  nElectrons: 8.000000
LCAOMinimize: Iter:   1  Etot: -7.8865098714166919  |grad|_K:  2.126e-06  alpha:  9.494e-01  linmin:  5.621e-04  cgtest: -2.430e-04  t[s]:      1.14
	FillingsUpdate:  mu: +0.265274398  nElectrons: 8.000000
LCAOMinimize: Iter:   2  Etot: -7.8865098767027160  |grad|_K:  3.514e-09  alpha:  9.961e-01  linmin: -3.418e-02  cgtest:  9.690e-02  t[s]:      1.29
LCAOMinimize: Encountered beta<0, resetting CG.
	FillingsUpdate:  mu: +0.265274401  nElectrons: 8.000000
LCAOMinimize: Iter:   3  Etot: -7.8865098767027169  |grad|_K:  4.625e-09  alpha:  2.315e+00  linmin:  4.069e-01  cgtest: -9.999e-01  t[s]:      1.45
LCAOMinimize: Converged (|Delta Etot|<1.000000e-06 for 2 iters).


---- Citations for features of the code used in this run ----

   Software package:
      R. Sundararaman, K. Letchworth-Weaver, K.A. Schwarz, D. Gunceler, Y. Ozhabes and T.A. Arias, 'JDFTx: software for joint density-functional theory', SoftwareX 6, 278 (2017)

   gga-PBE exchange-correlation functional:
      J.P. Perdew, K. Burke and M. Ernzerhof, Phys. Rev. Lett. 77, 3865 (1996)

   Pseudopotentials:
      KF Garrity, JW Bennett, KM Rabe and D Vanderbilt, Comput. Mater. Sci. 81, 446 (2014)

This list may not be complete. Please suggest additional citations or
report any other bugs at https://github.com/shankar1729/jdftx/issues

Initialization completed successfully at t[s]:      1.46


-------- Electronic minimization -----------
Will mix electronic density at each iteration.
SCF: Cycle:  0   Etot: -7.941152090866916   dEtot: -5.464e-02   |Residual|: 6.331e-02   |deigs|: 7.840e-03  t[s]:      1.72
SCF: Cycle:  1   Etot: -7.942338907867753   dEtot: -1.187e-03   |Residual|: 3.823e-02   |deigs|: 4.810e-03  t[s]:      1.91
SCF: Cycle:  2   Etot: -7.942821216369000   dEtot: -4.823e-04   |Residual|: 7.431e-03   |deigs|: 8.026e-03  t[s]:      2.10
SCF: Cycle:  3   Etot: -7.942840467105828   dEtot: -1.925e-05   |Residual|: 3.671e-03   |deigs|: 1.327e-03  t[s]:      2.28
SCF: Cycle:  4   Etot: -7.942850137203528   dEtot: -9.670e-06   |Residual|: 2.737e-04   |deigs|: 8.806e-04  t[s]:      2.42
SCF: Cycle:  5   Etot: -7.942852581385669   dEtot: -2.444e-06   |Residual|: 2.083e-04   |deigs|: 1.053e-05  t[s]:      2.55
SCF: Cycle:  6   Etot: -7.942853865355644   dEtot: -1.284e-06   |Residual|: 3.534e-04   |deigs|: 8.685e-05  t[s]:      2.69
SCF: Cycle:  7   Etot: -7.942854700986477   dEtot: -8.356e-07   |Residual|: 6.178e-05   |deigs|: 7.079e-05  t[s]:      2.82
SCF: Cycle:  8   Etot: -7.942855202604310   dEtot: -5.016e-07   |Residual|: 4.939e-05   |deigs|: 3.802e-06  t[s]:      2.95
SCF: Cycle:  9   Etot: -7.942855510603296   dEtot: -3.080e-07   |Residual|: 2.801e-05   |deigs|: 1.398e-06  t[s]:      3.08
SCF: Cycle: 10   Etot: -7.942855708240032   dEtot: -1.976e-07   |Residual|: 4.069e-05   |deigs|: 3.228e-06  t[s]:      3.21
SCF: Cycle: 11   Etot: -7.942855838003779   dEtot: -1.298e-07   |Residual|: 9.320e-06   |deigs|: 1.064e-06  t[s]:      3.34
SCF: Cycle: 12   Etot: -7.942855916651989   dEtot: -7.865e-08   |Residual|: 3.955e-05   |deigs|: 7.587e-07  t[s]:      3.47
SCF: Cycle: 13   Etot: -7.942855971083124   dEtot: -5.443e-08   |Residual|: 2.090e-05   |deigs|: 8.889e-07  t[s]:      3.61
SCF: Cycle: 14   Etot: -7.942856003442552   dEtot: -3.236e-08   |Residual|: 3.513e-05   |deigs|: 1.222e-06  t[s]:      3.74
SCF: Cycle: 15   Etot: -7.942856026275111   dEtot: -2.283e-08   |Residual|: 2.243e-05   |deigs|: 5.301e-08  t[s]:      3.87
SCF: Cycle: 16   Etot: -7.942856039547166   dEtot: -1.327e-08   |Residual|: 3.330e-05   |deigs|: 1.338e-07  t[s]:      4.02
SCF: Cycle: 17   Etot: -7.942856049452962   dEtot: -9.906e-09   |Residual|: 2.642e-05   |deigs|: 1.970e-07  t[s]:      4.16
SCF: Cycle: 18   Etot: -7.942856054864444   dEtot: -5.411e-09   |Residual|: 3.302e-05   |deigs|: 1.169e-07  t[s]:      4.30
SCF: Converged (|Delta E|<1.000000e-08 for 2 iters).


# Ionic positions in lattice coordinates:
ion Si   0.000000000000000   0.000000000000000   0.000000000000000 0
ion Si   0.250000000000000   0.250000000000000   0.250000000000000 0


# Forces in Lattice coordinates:
force Si  -0.000000000000000  -0.000000000000000   0.000000000000000 0
force Si   0.000000000000000   0.000000000000000   0.000000000000000 0

# Energy components:
   Eewald =       -8.3980092279323220
       EH =        0.5584054974678111
     Eloc =       -2.1045835620823734
      Enl =        1.6295614502577260
      Exc =       -4.3106138050629097
 Exc_core =        1.6535543974399618
       KE =        3.0288291950476625
-------------------------------------
     Etot =       -7.9428560548644436

IonicMinimize: Iter:   0  Etot: -7.942856054864444  |grad|_K:  0.000e+00  t[s]:      4.35
IonicMinimize: Converged (|grad|_K<1.000000e-04).

#--- Lowdin population analysis ---
# oxidation-state Si +0.035 +0.035


Dumping 'totalE.wfns' ... done
Dumping 'totalE.n' ... done
Dumping 'totalE.eigenvals' ... done
Dumping 'totalE.eigStats' ... 
	eMin: -0.211884 at state 0 ( [ +0.000000 +0.000000 +0.000000 ] spin 0 )
	HOMO: +0.227561 at state 0 ( [ +0.000000 +0.000000 +0.000000 ] spin 0 )
	mu  : unavailable
	LUMO: unavailable
	eMax: +0.227561 at state 0 ( [ +0.000000 +0.000000 +0.000000 ] spin 0 )
	HOMO-LUMO gap: unavailable
	Optical gap  : unavailable
End date and time: Mon Mar  4 10:20:25 2019  (Duration: 0-0:00:04.39)
Done!
