
*************** JDFTx 1.4.2  ***************

Start date and time: Sun Mar  3 23:33:50 2019
Executable jdftx with command-line: -i vibrations.in
Running on hosts (process indices):  Juans-MBP.lan1 (0)
Divided in process groups (process indices):  0 (0)
Resource initialization completed at t[s]:      0.00
Run totals: 1 processes, 12 threads, 0 GPUs


Input parsed successfully to the following command list (including defaults):

basis kpoint-dependent
coords-type Cartesian
core-overlap-check vector
coulomb-interaction Isolated
coulomb-truncation-embed 0 0 0
davidson-band-ratio 1.1
dump End None
dump-name OH-.$VAR
elec-cutoff 20 100
elec-eigen-algo Davidson
elec-ex-corr gga-PBE
elec-initial-charge 1.000000
electronic-minimize  \
	dirUpdateScheme      FletcherReeves \
	linminMethod         DirUpdateRecommended \
	nIterations          100 \
	history              15 \
	knormThreshold       0 \
	energyDiffThreshold  1e-08 \
	nEnergyDiff          2 \
	alphaTstart          1 \
	alphaTmin            1e-10 \
	updateTestStepSize   yes \
	alphaTreduceFactor   0.1 \
	alphaTincreaseFactor 3 \
	nAlphaAdjustMax      3 \
	wolfeEnergy          0.0001 \
	wolfeGradient        0.9 \
	fdTest               no
exchange-regularization None
fluid LinearPCM 298.000000 1.013250
fluid-anion F- 1 MeanFieldLJ \
	epsBulk 1 \
	pMol 0 \
	epsInf 1 \
	Pvap 0 \
	sigmaBulk 0 \
	Rvdw 2.24877 \
	Res 0
fluid-cation Na+ 1 MeanFieldLJ \
	epsBulk 1 \
	pMol 0 \
	epsInf 1 \
	Pvap 0 \
	sigmaBulk 0 \
	Rvdw 2.19208 \
	Res 0
fluid-ex-corr lda-TF lda-PZ
fluid-gummel-loop 10 1.000000e-05
fluid-minimize  \
	dirUpdateScheme      PolakRibiere \
	linminMethod         DirUpdateRecommended \
	nIterations          400 \
	history              15 \
	knormThreshold       1e-11 \
	energyDiffThreshold  0 \
	nEnergyDiff          2 \
	alphaTstart          1 \
	alphaTmin            1e-10 \
	updateTestStepSize   yes \
	alphaTreduceFactor   0.1 \
	alphaTincreaseFactor 3 \
	nAlphaAdjustMax      6 \
	wolfeEnergy          0.0001 \
	wolfeGradient        0.9 \
	fdTest               no
fluid-solvent H2O 55.338 ScalarEOS \
	epsBulk 78.4 \
	pMol 0.92466 \
	epsInf 1.77 \
	Pvap 1.06736e-10 \
	sigmaBulk 4.62e-05 \
	Rvdw 2.61727 \
	Res 1.42
forces-output-coords Positions
initial-state OH-.$VAR
ion O   0.000000000000000   0.000000000000000   0.000000000000000 0
ion H   0.000000000000000   0.000000000000000   1.851273378266064 1
ion-species GBRV/$ID_pbe.uspp
ion-width Ecut
ionic-minimize  \
	dirUpdateScheme      L-BFGS \
	linminMethod         DirUpdateRecommended \
	nIterations          0 \
	history              15 \
	knormThreshold       0.0001 \
	energyDiffThreshold  1e-06 \
	nEnergyDiff          2 \
	alphaTstart          1 \
	alphaTmin            1e-10 \
	updateTestStepSize   yes \
	alphaTreduceFactor   0.1 \
	alphaTincreaseFactor 3 \
	nAlphaAdjustMax      3 \
	wolfeEnergy          0.0001 \
	wolfeGradient        0.9 \
	fdTest               no
kpoint   0.000000000000   0.000000000000   0.000000000000  1.00000000000000
kpoint-folding 1 1 1 
latt-move-scale 1 1 1
latt-scale 1 1 1 
lattice Cubic 15
lattice-minimize  \
	dirUpdateScheme      L-BFGS \
	linminMethod         DirUpdateRecommended \
	nIterations          0 \
	history              15 \
	knormThreshold       0 \
	energyDiffThreshold  1e-06 \
	nEnergyDiff          2 \
	alphaTstart          1 \
	alphaTmin            1e-10 \
	updateTestStepSize   yes \
	alphaTreduceFactor   0.1 \
	alphaTincreaseFactor 3 \
	nAlphaAdjustMax      3 \
	wolfeEnergy          0.0001 \
	wolfeGradient        0.9 \
	fdTest               no
lcao-params -1 1e-06 0.001
pcm-variant CANDLE
spintype no-spin
subspace-rotation-factor 1 yes
symmetries automatic
symmetry-threshold 0.0001
vibrations \
	dr 0.01\
	centralDiff yes\
	useConstraints no\
	translationSym yes\
	rotationSym yes\
	omegaMin 0.0002\
	T 298\
	omegaResolution 0.0001



---------- Setting up symmetries ----------

Found 48 point-group symmetries of the bravais lattice
Found 8 space-group symmetries with basis
Applied RMS atom displacement 0 bohrs to make symmetries exact.
Applied RMS atom displacement 0 bohrs to make symmetries exact.

---------- Initializing the Grid ----------
R = 
[         15          0          0  ]
[          0         15          0  ]
[          0          0         15  ]
unit cell volume = 3375
G =
[   0.418879          0          0  ]
[          0   0.418879          0  ]
[          0          0   0.418879  ]
Minimum fftbox size, Smin = [  68  68  68  ]
Chosen fftbox size, S = [  70  70  70  ]

---------- Initializing tighter grid for wavefunction operations ----------
R = 
[         15          0          0  ]
[          0         15          0  ]
[          0          0         15  ]
unit cell volume = 3375
G =
[   0.418879          0          0  ]
[          0   0.418879          0  ]
[          0          0   0.418879  ]
Minimum fftbox size, Smin = [  64  64  64  ]
Chosen fftbox size, S = [  64  64  64  ]

---------- Exchange Correlation functional ----------
Initalized PBE GGA exchange.
Initalized PBE GGA correlation.

---------- Setting up pseudopotentials ----------
Width of ionic core gaussian charges (only for fluid interactions / plotting) set to 0.397384

Reading pseudopotential file '/Users/juanmendezvalderrama/Documents/JDFTX/build/pseudopotentials/GBRV/o_pbe.uspp':
  Title: O.  Created by USPP 7.3.6 on 3-2-2014
  Reference state energy: -15.894388.  6 valence electrons in orbitals:
    |200>  occupation: 2  eigenvalue: -0.878823
    |210>  occupation: 4  eigenvalue: -0.332131
  lMax: 2  lLocal: 2  QijEcut: 6
  5 projectors sampled on a log grid with 511 points:
    l: 0  eig: -0.878823  rCut: 1.25
    l: 0  eig: 0.000000  rCut: 1.25
    l: 1  eig: -0.332132  rCut: 1.25
    l: 1  eig: 0.000000  rCut: 1.25
    l: 2  eig: 1.000000  rCut: 1.25
  Partial core density with radius 0.7
  Transforming core density to a uniform radial grid of dG=0.02 with 1275 points.
  Transforming local potential to a uniform radial grid of dG=0.02 with 1275 points.
  Transforming nonlocal projectors to a uniform radial grid of dG=0.02 with 432 points.
  Transforming density augmentations to a uniform radial grid of dG=0.02 with 1275 points.
  Transforming atomic orbitals to a uniform radial grid of dG=0.02 with 432 points.
  Core radius for overlap checks: 1.25 bohrs.

Reading pseudopotential file '/Users/juanmendezvalderrama/Documents/JDFTX/build/pseudopotentials/GBRV/h_pbe.uspp':
  Title: H.  Created by USPP 7.3.6 on 2-4-15
  Reference state energy: -0.458849.  1 valence electrons in orbitals:
    |100>  occupation: 1  eigenvalue: -0.238595
  lMax: 0  lLocal: 1  QijEcut: 6
  2 projectors sampled on a log grid with 395 points:
    l: 0  eig: -0.238595  rCut: 1.2
    l: 0  eig: 1.000000  rCut: 1.2
  Transforming local potential to a uniform radial grid of dG=0.02 with 1275 points.
  Transforming nonlocal projectors to a uniform radial grid of dG=0.02 with 432 points.
  Transforming density augmentations to a uniform radial grid of dG=0.02 with 1275 points.
  Transforming atomic orbitals to a uniform radial grid of dG=0.02 with 432 points.
  Core radius for overlap checks: 1.20 bohrs.

Initialized 2 species with 2 total atoms.

Folded 1 k-points by 1x1x1 to 1 k-points.

---------- Setting up k-points, bands, fillings ----------
No reducable k-points. 
Computing the number of bands and number of electrons
Calculating initial fillings.
nElectrons:   8.000000   nBands: 4   nStates: 1

----- Setting up reduced wavefunction bases (one per k-point) -----
average nbasis = 14363.000 , ideal nbasis = 14418.257

---------- Setting up coulomb interaction ----------
Fluid mode embedding: using embedded box, but periodic Coulomb kernel.
(Fluid response is responsible for (approximate) separation between periodic images.)
Setting up double-sized grid for truncated Coulomb potentials:
R = 
[         30          0          0  ]
[          0         30          0  ]
[          0          0         30  ]
unit cell volume = 27000
G =
[    0.20944          0          0  ]
[          0    0.20944          0  ]
[          0          0    0.20944  ]
Chosen fftbox size, S = [  140  140  140  ]
Integer grid location selected as the embedding center:
   Grid: [  0  0  0  ]
   Lattice: [  0  0  0  ]
   Cartesian: [  0  0  0  ]
Constructing Wigner-Seitz cell: 6 faces (6 quadrilaterals, 0 hexagons)
Range-separation parameter for embedded mesh potentials due to point charges: 0.583992 bohrs.

Initializing van der Waals corrections
	NOTE: vdW corrections apply only for interactions with fluid.
	 O:  C6:   12.14 Eh-a0^6  R0: 2.536 a0
	 H:  C6:    2.43 Eh-a0^6  R0: 1.892 a0

---------- Setting up ewald sum ----------
Optimum gaussian width for ewald sums = 10.662515 bohr.
Real space sum over 1331 unit cells with max indices [  5  5  5  ]
Reciprocal space sum over 2197 terms with max indices [  6  6  6  ]

---------- Allocating electronic variables ----------
Initializing wave functions:  reading from 'OH-.wfns'
----- createFluidSolver() ----- (Fluid-side solver setup)
   Initializing fluid molecule 'H2O'
     Initializing site 'O'
       Electron density: proportional to exp(-r/0.36935)*erfc((r-0.51523)/0.36823) with norm 6.826
       Charge density: gaussian nuclear width 0.478731 with net site charge 0.826
       Polarizability: cuspless exponential with width 0.32 and norm 3.73
       Hard sphere radius: 2.57003 bohrs
       Positions in reference frame:
         [ +0.000000 +0.000000 +0.000000 ]
     Initializing site 'H'
       Electron density: proportional to exp(-r/0.34641)*erfc((r-0)/0.390882) with norm 0.587
       Charge density: gaussian nuclear width 0.377945 with net site charge -0.413
       Polarizability: cuspless exponential with width 0.39 and norm 3.3
       Positions in reference frame:
         [ +0.000000 -1.441945 +1.122523 ]
         [ +0.000000 +1.441945 +1.122523 ]
     Net charge: 0   dipole magnitude: 0.927204
     Initializing spherical shell mfKernel with radius 2.61727 Bohr
     deltaS corrections:
       site 'O': -7.54299
       site 'H': -6.83917
   Initializing fluid molecule 'Na+'
     Initializing site 'Na'
       Electron density: proportional to exp(-r/0.19682)*erfc((r-0.71491)/0.41314) with norm 8.1383
       Charge density: gaussian nuclear width 0.365347 with net site charge -1
       Hard sphere radius: 1.86327 bohrs
       Positions in reference frame:
         [ +0.000000 +0.000000 +0.000000 ]
     Net charge: -1   dipole magnitude: 0
     Initializing gaussian mfKernel with width: 1.55004 Bohr
     deltaS corrections:
       site 'Na': -22.3555
   Initializing fluid molecule 'F-'
     Initializing site 'F'
       Electron density: proportional to exp(-r/0.38886)*erfc((r-0)/0.438782) with norm 8
       Charge density: gaussian nuclear width 0.374796 with net site charge 1
       Hard sphere radius: 2.39995 bohrs
       Positions in reference frame:
         [ +0.000000 +0.000000 +0.000000 ]
     Net charge: 1   dipole magnitude: 0
     Initializing gaussian mfKernel with width: 1.59012 Bohr
     deltaS corrections:
       site 'F': -9.04335

Correction to mu due to finite nuclear width = -0.000257237
   Cavity determined by nc: 0.00142 and sigma: 0.707107
   Nonlocal vdW cavity from gaussian model electron density with norm = 8 and sigma = 0.993594 bohr
   Charge asymmetry in cavity with sensitivity pCavity = 36.5 e-bohr/Eh
   Electrostatic cavity expanded by eta = 1.46 bohrs
   Weighted density cavitation model constrained by Nbulk: 0.0049383 bohr^-3, Pvap: 3.14029 kPa, Rvdw: 2.61727 bohr and sigmaBulk: 4.62e-05 Eh/bohr^2 at T: 298 K.
   Weighted density dispersion model using vdW pair potentials with single solvent site with sqrtC6eff: 0.77 SI.
Reading fluid state from 'OH-.fluidState'


---- Citations for features of the code used in this run ----

   Software package:
      R. Sundararaman, K. Letchworth-Weaver, K.A. Schwarz, D. Gunceler, Y. Ozhabes and T.A. Arias, 'JDFTx: software for joint density-functional theory', SoftwareX 6, 278 (2017)

   gga-PBE exchange-correlation functional:
      J.P. Perdew, K. Burke and M. Ernzerhof, Phys. Rev. Lett. 77, 3865 (1996)

   Pseudopotentials:
      KF Garrity, JW Bennett, KM Rabe and D Vanderbilt, Comput. Mater. Sci. 81, 446 (2014)

   Truncated Coulomb potentials:
      R. Sundararaman and T.A. Arias, Phys. Rev. B 87, 165122 (2013)

   Van der Waals correction pair-potentials:
      S. Grimme, J. Comput. Chem. 27, 1787 (2006)

   Charge-asymmetric nonlocally-determined local-electric (CANDLE) solvation model:
      R. Sundararaman and W.A. Goddard III, J. Chem. Phys. 142, 064107 (2015)

   Total energy minimization:
      T.A. Arias, M.C. Payne and J.D. Joannopoulos, Phys. Rev. Lett. 69, 1077 (1992)

This list may not be complete. Please suggest additional citations or
report any other bugs at https://github.com/shankar1729/jdftx/issues

Initialization completed successfully at t[s]:      3.37

------ Vibrations::calculate() -------
WARNING: Vibrations module is experimental. Please report bugs!
Compare results with and without symmetries and report discrepancies.
Degrees of freedom: 6 total, 3 symmetry-independent.
	Linear fluid (dielectric constant: 78.4, screening length: 5.74355 Bohr) occupying 0.988922 of unit cell:	Completed after 0 iterations at t[s]:      5.48

-------- Electronic minimization -----------
	Linear fluid (dielectric constant: 78.4, screening length: 5.74355 Bohr) occupying 0.988922 of unit cell:	Completed after 0 iterations at t[s]:      7.13
ElecMinimize: Iter:   0  Etot: -16.810640119289271  |grad|_K:  2.039e-07  alpha:  1.000e+00
	Linear fluid (dielectric constant: 78.4, screening length: 5.74355 Bohr) occupying 0.988922 of unit cell:	Completed after 0 iterations at t[s]:      9.03
	Linear fluid (dielectric constant: 78.4, screening length: 5.74355 Bohr) occupying 0.988922 of unit cell:	Completed after 0 iterations at t[s]:     10.66
ElecMinimize: Iter:   1  Etot: -16.810640120579183  |grad|_K:  5.120e-08  alpha:  5.401e-01  linmin:  1.606e-04  t[s]:     11.56
	Linear fluid (dielectric constant: 78.4, screening length: 5.74355 Bohr) occupying 0.988922 of unit cell:	Completed after 0 iterations at t[s]:     12.34
ElecMinimize: 	Predicted alpha/alphaT>3.000000, increasing alphaT to 1.620236e+00.
	Linear fluid (dielectric constant: 78.4, screening length: 5.74355 Bohr) occupying 0.988922 of unit cell:	Completed after 0 iterations at t[s]:     13.97
	Linear fluid (dielectric constant: 78.4, screening length: 5.74355 Bohr) occupying 0.988922 of unit cell:	Completed after 0 iterations at t[s]:     15.59
ElecMinimize: Iter:   2  Etot: -16.810640120822978  |grad|_K:  3.290e-08  alpha:  1.619e+00  linmin:  7.648e-05  t[s]:     16.49
ElecMinimize: Converged (|Delta Etot|<1.000000e-08 for 2 iters).
Setting wave functions to eigenvectors of Hamiltonian
Completed 1 of 7 configurations.
	Linear fluid (dielectric constant: 78.4, screening length: 5.74355 Bohr) occupying 0.988922 of unit cell:	Completed after 7 iterations at t[s]:     20.11

-------- Electronic minimization -----------
	Linear fluid (dielectric constant: 78.4, screening length: 5.74355 Bohr) occupying 0.988922 of unit cell:	Completed after 0 iterations at t[s]:     21.74
ElecMinimize: Iter:   0  Etot: -16.810631654898511  |grad|_K:  1.463e-05  alpha:  1.000e+00
	Linear fluid (dielectric constant: 78.4, screening length: 5.74355 Bohr) occupying 0.988922 of unit cell:	Completed after 5 iterations at t[s]:     24.61
	Linear fluid (dielectric constant: 78.4, screening length: 5.74355 Bohr) occupying 0.988922 of unit cell:	Completed after 3 iterations at t[s]:     27.03
ElecMinimize: Iter:   1  Etot: -16.810639227854029  |grad|_K:  3.530e-06  alpha:  6.153e-01  linmin:  5.829e-03  t[s]:     27.92
	Linear fluid (dielectric constant: 78.4, screening length: 5.74355 Bohr) occupying 0.988922 of unit cell:	Completed after 0 iterations at t[s]:     28.71
	Linear fluid (dielectric constant: 78.4, screening length: 5.74355 Bohr) occupying 0.988922 of unit cell:	Completed after 1 iterations at t[s]:     30.73
ElecMinimize: Iter:   2  Etot: -16.810639890001713  |grad|_K:  1.975e-06  alpha:  9.614e-01  linmin:  3.357e-02  t[s]:     31.62
	Linear fluid (dielectric constant: 78.4, screening length: 5.74355 Bohr) occupying 0.988922 of unit cell:	Completed after 0 iterations at t[s]:     32.61
	Linear fluid (dielectric constant: 78.4, screening length: 5.74355 Bohr) occupying 0.988922 of unit cell:	Completed after 0 iterations at t[s]:     34.23
ElecMinimize: Iter:   3  Etot: -16.810640070898682  |grad|_K:  9.410e-07  alpha:  8.352e-01  linmin: -2.256e-02  t[s]:     35.13
	Linear fluid (dielectric constant: 78.4, screening length: 5.74355 Bohr) occupying 0.988922 of unit cell:	Completed after 0 iterations at t[s]:     35.91
	Linear fluid (dielectric constant: 78.4, screening length: 5.74355 Bohr) occupying 0.988922 of unit cell:	Completed after 0 iterations at t[s]:     37.73
ElecMinimize: Iter:   4  Etot: -16.810640117187578  |grad|_K:  5.290e-07  alpha:  9.700e-01  linmin:  1.138e-02  t[s]:     38.62
	Linear fluid (dielectric constant: 78.4, screening length: 5.74355 Bohr) occupying 0.988922 of unit cell:	Completed after 0 iterations at t[s]:     39.41
	Linear fluid (dielectric constant: 78.4, screening length: 5.74355 Bohr) occupying 0.988922 of unit cell:	Completed after 0 iterations at t[s]:     41.02
ElecMinimize: Iter:   5  Etot: -16.810640131413894  |grad|_K:  2.883e-07  alpha:  8.941e-01  linmin: -3.122e-06  t[s]:     41.91
	Linear fluid (dielectric constant: 78.4, screening length: 5.74355 Bohr) occupying 0.988922 of unit cell:	Completed after 0 iterations at t[s]:     42.70
	Linear fluid (dielectric constant: 78.4, screening length: 5.74355 Bohr) occupying 0.988922 of unit cell:	Completed after 0 iterations at t[s]:     44.33
ElecMinimize: Iter:   6  Etot: -16.810640136221817  |grad|_K:  1.842e-07  alpha:  1.007e+00  linmin: -1.332e-06  t[s]:     45.22
	Linear fluid (dielectric constant: 78.4, screening length: 5.74355 Bohr) occupying 0.988922 of unit cell:	Completed after 1 iterations at t[s]:     46.40
	Linear fluid (dielectric constant: 78.4, screening length: 5.74355 Bohr) occupying 0.988922 of unit cell:	Completed after 0 iterations at t[s]:     48.02
ElecMinimize: 	Step increased Etot by 2.161992e-08, reducing alpha to 7.771964e-03.
	Linear fluid (dielectric constant: 78.4, screening length: 5.74355 Bohr) occupying 0.988922 of unit cell:	Completed after 0 iterations at t[s]:     49.70
ElecMinimize: 	Step increased Etot by 2.175228e-08, reducing alpha to 7.771964e-04.
	Linear fluid (dielectric constant: 78.4, screening length: 5.74355 Bohr) occupying 0.988922 of unit cell:	Completed after 0 iterations at t[s]:     51.37
ElecMinimize: 	Step increased Etot by 2.176657e-08, reducing alpha to 7.771964e-05.
ElecMinimize: 	Step failed to reduce Etot after 3 attempts. Quitting step.
ElecMinimize: 	Undoing step.
	Linear fluid (dielectric constant: 78.4, screening length: 5.74355 Bohr) occupying 0.988922 of unit cell:	Completed after 0 iterations at t[s]:     53.06
ElecMinimize: 	Step failed: resetting search direction.
ElecMinimize: Iter:   7  Etot: -16.810640114455115  |grad|_K:  4.816e-07  alpha:  7.772e-05
	Linear fluid (dielectric constant: 78.4, screening length: 5.74355 Bohr) occupying 0.988922 of unit cell:	Completed after 0 iterations at t[s]:     54.74
	Linear fluid (dielectric constant: 78.4, screening length: 5.74355 Bohr) occupying 0.988922 of unit cell:	Completed after 0 iterations at t[s]:     56.41
ElecMinimize: Iter:   8  Etot: -16.810640126727716  |grad|_K:  2.510e-07  alpha:  9.209e-01  linmin: -8.775e-06  t[s]:     57.32
	Linear fluid (dielectric constant: 78.4, screening length: 5.74355 Bohr) occupying 0.988923 of unit cell:	Completed after 0 iterations at t[s]:     58.11
	Linear fluid (dielectric constant: 78.4, screening length: 5.74355 Bohr) occupying 0.988923 of unit cell:	Completed after 0 iterations at t[s]:     59.73
ElecMinimize: Iter:   9  Etot: -16.810640130272095  |grad|_K:  1.620e-07  alpha:  9.795e-01  linmin:  3.409e-05  t[s]:     60.63
	Linear fluid (dielectric constant: 78.4, screening length: 5.74355 Bohr) occupying 0.988923 of unit cell:	Completed after 1 iterations at t[s]:     61.81
	Linear fluid (dielectric constant: 78.4, screening length: 5.74355 Bohr) occupying 0.988923 of unit cell:	Completed after 0 iterations at t[s]:     63.43
ElecMinimize: 	Step increased Etot by 1.298421e-08, reducing alpha to 7.043419e-03.
	Linear fluid (dielectric constant: 78.4, screening length: 5.74355 Bohr) occupying 0.988923 of unit cell:	Completed after 0 iterations at t[s]:     65.10
ElecMinimize: 	Step increased Etot by 1.274423e-08, reducing alpha to 7.043419e-04.
	Linear fluid (dielectric constant: 78.4, screening length: 5.74355 Bohr) occupying 0.988923 of unit cell:	Completed after 0 iterations at t[s]:     66.78
ElecMinimize: 	Step increased Etot by 1.272101e-08, reducing alpha to 7.043419e-05.
ElecMinimize: 	Step failed to reduce Etot after 3 attempts. Quitting step.
ElecMinimize: 	Undoing step.
	Linear fluid (dielectric constant: 78.4, screening length: 5.74355 Bohr) occupying 0.988923 of unit cell:	Completed after 0 iterations at t[s]:     68.47
ElecMinimize: 	Step failed: resetting search direction.
ElecMinimize: Iter:  10  Etot: -16.810640117551479  |grad|_K:  5.405e-07  alpha:  7.043e-05
	Linear fluid (dielectric constant: 78.4, screening length: 5.74355 Bohr) occupying 0.988922 of unit cell:	Completed after 1 iterations at t[s]:     70.55
	Linear fluid (dielectric constant: 78.4, screening length: 5.74355 Bohr) occupying 0.988922 of unit cell:	Completed after 0 iterations at t[s]:     72.17
ElecMinimize: Iter:  11  Etot: -16.810640124745209  |grad|_K:  1.662e-07  alpha:  5.550e-01  linmin:  1.190e-01  t[s]:     73.07
	Linear fluid (dielectric constant: 78.4, screening length: 5.74355 Bohr) occupying 0.988922 of unit cell:	Completed after 0 iterations at t[s]:     73.85
	Linear fluid (dielectric constant: 78.4, screening length: 5.74355 Bohr) occupying 0.988922 of unit cell:	Completed after 0 iterations at t[s]:     75.47
ElecMinimize: Iter:  12  Etot: -16.810640125644309  |grad|_K:  5.398e-08  alpha:  6.034e-01  linmin:  1.546e-04  t[s]:     76.37
ElecMinimize: Converged (|Delta Etot|<1.000000e-08 for 2 iters).
Setting wave functions to eigenvectors of Hamiltonian
Completed 2 of 7 configurations.
	Linear fluid (dielectric constant: 78.4, screening length: 5.74355 Bohr) occupying 0.988922 of unit cell:	Completed after 8 iterations at t[s]:     80.20

-------- Electronic minimization -----------
	Linear fluid (dielectric constant: 78.4, screening length: 5.74355 Bohr) occupying 0.988922 of unit cell:	Completed after 0 iterations at t[s]:     81.82
ElecMinimize: Iter:   0  Etot: -16.810606264177181  |grad|_K:  2.926e-05  alpha:  1.000e+00
	Linear fluid (dielectric constant: 78.4, screening length: 5.74355 Bohr) occupying 0.988922 of unit cell:	Completed after 4 iterations at t[s]:     84.49
	Linear fluid (dielectric constant: 78.4, screening length: 5.74355 Bohr) occupying 0.988922 of unit cell:	Completed after 3 iterations at t[s]:     86.90
ElecMinimize: Iter:   1  Etot: -16.810636557703077  |grad|_K:  7.049e-06  alpha:  6.152e-01  linmin:  5.684e-03  t[s]:     87.80
	Linear fluid (dielectric constant: 78.4, screening length: 5.74355 Bohr) occupying 0.988922 of unit cell:	Completed after 1 iterations at t[s]:     88.98
	Linear fluid (dielectric constant: 78.4, screening length: 5.74355 Bohr) occupying 0.988922 of unit cell:	Completed after 2 iterations at t[s]:     91.20
ElecMinimize: Iter:   2  Etot: -16.810639188525784  |grad|_K:  3.763e-06  alpha:  9.235e-01  linmin: -7.872e-03  t[s]:     92.08
	Linear fluid (dielectric constant: 78.4, screening length: 5.74355 Bohr) occupying 0.988922 of unit cell:	Completed after 0 iterations at t[s]:     92.86
	Linear fluid (dielectric constant: 78.4, screening length: 5.74355 Bohr) occupying 0.988922 of unit cell:	Completed after 0 iterations at t[s]:     94.49
ElecMinimize: Iter:   3  Etot: -16.810639903660178  |grad|_K:  1.872e-06  alpha:  8.737e-01  linmin:  9.611e-07  t[s]:     95.39
	Linear fluid (dielectric constant: 78.4, screening length: 5.74355 Bohr) occupying 0.988922 of unit cell:	Completed after 1 iterations at t[s]:     96.56
	Linear fluid (dielectric constant: 78.4, screening length: 5.74355 Bohr) occupying 0.988922 of unit cell:	Completed after 0 iterations at t[s]:     98.18
ElecMinimize: Iter:   4  Etot: -16.810640064736397  |grad|_K:  8.981e-07  alpha:  8.130e-01  linmin: -1.484e-01  t[s]:     99.08
	Linear fluid (dielectric constant: 78.4, screening length: 5.74355 Bohr) occupying 0.988922 of unit cell:	Completed after 0 iterations at t[s]:     99.86
	Linear fluid (dielectric constant: 78.4, screening length: 5.74355 Bohr) occupying 0.988922 of unit cell:	Completed after 0 iterations at t[s]:    101.47
ElecMinimize: Iter:   5  Etot: -16.810640114486233  |grad|_K:  5.087e-07  alpha:  9.741e-01  linmin: -5.305e-06  t[s]:    102.37
	Linear fluid (dielectric constant: 78.4, screening length: 5.74355 Bohr) occupying 0.988922 of unit cell:	Completed after 0 iterations at t[s]:    103.15
	Linear fluid (dielectric constant: 78.4, screening length: 5.74355 Bohr) occupying 0.988922 of unit cell:	Completed after 0 iterations at t[s]:    104.77
ElecMinimize: Iter:   6  Etot: -16.810640128337777  |grad|_K:  3.079e-07  alpha:  9.316e-01  linmin:  3.257e-06  t[s]:    105.67
	Linear fluid (dielectric constant: 78.4, screening length: 5.74355 Bohr) occupying 0.988922 of unit cell:	Completed after 0 iterations at t[s]:    106.44
	Linear fluid (dielectric constant: 78.4, screening length: 5.74355 Bohr) occupying 0.988922 of unit cell:	Completed after 0 iterations at t[s]:    108.07
ElecMinimize: Iter:   7  Etot: -16.810640134015411  |grad|_K:  1.979e-07  alpha:  1.042e+00  linmin:  8.644e-06  t[s]:    108.97
	Linear fluid (dielectric constant: 78.4, screening length: 5.74355 Bohr) occupying 0.988922 of unit cell:	Completed after 0 iterations at t[s]:    109.75
	Linear fluid (dielectric constant: 78.4, screening length: 5.74355 Bohr) occupying 0.988922 of unit cell:	Completed after 0 iterations at t[s]:    111.37
ElecMinimize: Iter:   8  Etot: -16.810640136405414  |grad|_K:  1.295e-07  alpha:  1.062e+00  linmin: -3.371e-05  t[s]:    112.27
ElecMinimize: Converged (|Delta Etot|<1.000000e-08 for 2 iters).
Setting wave functions to eigenvectors of Hamiltonian
Completed 3 of 7 configurations.
	Linear fluid (dielectric constant: 78.4, screening length: 5.74355 Bohr) occupying 0.988922 of unit cell:	Completed after 7 iterations at t[s]:    115.89

-------- Electronic minimization -----------
	Linear fluid (dielectric constant: 78.4, screening length: 5.74355 Bohr) occupying 0.988922 of unit cell:	Completed after 0 iterations at t[s]:    117.51
ElecMinimize: Iter:   0  Etot: -16.810623222399204  |grad|_K:  2.065e-05  alpha:  1.000e+00
	Linear fluid (dielectric constant: 78.4, screening length: 5.74355 Bohr) occupying 0.988922 of unit cell:	Completed after 5 iterations at t[s]:    120.40
	Linear fluid (dielectric constant: 78.4, screening length: 5.74355 Bohr) occupying 0.988922 of unit cell:	Completed after 3 iterations at t[s]:    122.81
ElecMinimize: Iter:   1  Etot: -16.810638328729997  |grad|_K:  4.985e-06  alpha:  6.158e-01  linmin:  5.628e-03  t[s]:    123.70
	Linear fluid (dielectric constant: 78.4, screening length: 5.74355 Bohr) occupying 0.988922 of unit cell:	Completed after 1 iterations at t[s]:    124.89
	Linear fluid (dielectric constant: 78.4, screening length: 5.74355 Bohr) occupying 0.988922 of unit cell:	Completed after 0 iterations at t[s]:    126.70
ElecMinimize: Iter:   2  Etot: -16.810639659472020  |grad|_K:  2.684e-06  alpha:  9.268e-01  linmin: -2.510e-02  t[s]:    127.59
	Linear fluid (dielectric constant: 78.4, screening length: 5.74355 Bohr) occupying 0.988922 of unit cell:	Completed after 1 iterations at t[s]:    128.78
	Linear fluid (dielectric constant: 78.4, screening length: 5.74355 Bohr) occupying 0.988922 of unit cell:	Completed after 0 iterations at t[s]:    130.41
ElecMinimize: Iter:   3  Etot: -16.810640000843797  |grad|_K:  1.299e-06  alpha:  8.182e-01  linmin: -5.208e-02  t[s]:    131.31
	Linear fluid (dielectric constant: 78.4, screening length: 5.74355 Bohr) occupying 0.988922 of unit cell:	Completed after 0 iterations at t[s]:    132.09
	Linear fluid (dielectric constant: 78.4, screening length: 5.74355 Bohr) occupying 0.988922 of unit cell:	Completed after 0 iterations at t[s]:    133.72
ElecMinimize: Iter:   4  Etot: -16.810640093420517  |grad|_K:  7.265e-07  alpha:  9.212e-01  linmin: -1.299e-06  t[s]:    134.61
	Linear fluid (dielectric constant: 78.4, screening length: 5.74355 Bohr) occupying 0.988922 of unit cell:	Completed after 0 iterations at t[s]:    135.39
	Linear fluid (dielectric constant: 78.4, screening length: 5.74355 Bohr) occupying 0.988922 of unit cell:	Completed after 0 iterations at t[s]:    137.01
ElecMinimize: Iter:   5  Etot: -16.810640119504324  |grad|_K:  3.852e-07  alpha:  8.603e-01  linmin:  7.479e-06  t[s]:    137.91
	Linear fluid (dielectric constant: 78.4, screening length: 5.74355 Bohr) occupying 0.988922 of unit cell:	Completed after 0 iterations at t[s]:    138.69
	Linear fluid (dielectric constant: 78.4, screening length: 5.74355 Bohr) occupying 0.988922 of unit cell:	Completed after 0 iterations at t[s]:    140.30
ElecMinimize: Iter:   6  Etot: -16.810640127779319  |grad|_K:  2.249e-07  alpha:  9.708e-01  linmin:  1.055e-05  t[s]:    141.20
	Linear fluid (dielectric constant: 78.4, screening length: 5.74355 Bohr) occupying 0.988922 of unit cell:	Completed after 0 iterations at t[s]:    141.99
	Linear fluid (dielectric constant: 78.4, screening length: 5.74355 Bohr) occupying 0.988922 of unit cell:	Completed after 0 iterations at t[s]:    143.62
ElecMinimize: Iter:   7  Etot: -16.810640130826798  |grad|_K:  1.485e-07  alpha:  1.049e+00  linmin:  1.367e-05  t[s]:    144.51
ElecMinimize: Converged (|Delta Etot|<1.000000e-08 for 2 iters).
Setting wave functions to eigenvectors of Hamiltonian
Completed 4 of 7 configurations.
	Linear fluid (dielectric constant: 78.4, screening length: 5.74355 Bohr) occupying 0.988922 of unit cell:	Completed after 8 iterations at t[s]:    148.33

-------- Electronic minimization -----------
	Linear fluid (dielectric constant: 78.4, screening length: 5.74355 Bohr) occupying 0.988922 of unit cell:	Completed after 0 iterations at t[s]:    149.94
ElecMinimize: Iter:   0  Etot: -16.810606356558100  |grad|_K:  2.921e-05  alpha:  1.000e+00
	Linear fluid (dielectric constant: 78.4, screening length: 5.74355 Bohr) occupying 0.988922 of unit cell:	Completed after 5 iterations at t[s]:    152.82
	Linear fluid (dielectric constant: 78.4, screening length: 5.74355 Bohr) occupying 0.988922 of unit cell:	Completed after 3 iterations at t[s]:    155.23
ElecMinimize: Iter:   1  Etot: -16.810636544028785  |grad|_K:  7.046e-06  alpha:  6.155e-01  linmin:  4.898e-03  t[s]:    156.12
	Linear fluid (dielectric constant: 78.4, screening length: 5.74355 Bohr) occupying 0.988922 of unit cell:	Completed after 1 iterations at t[s]:    157.29
	Linear fluid (dielectric constant: 78.4, screening length: 5.74355 Bohr) occupying 0.988922 of unit cell:	Completed after 2 iterations at t[s]:    159.51
ElecMinimize: Iter:   2  Etot: -16.810639183147185  |grad|_K:  3.775e-06  alpha:  9.265e-01  linmin: -8.719e-03  t[s]:    160.39
	Linear fluid (dielectric constant: 78.4, screening length: 5.74355 Bohr) occupying 0.988922 of unit cell:	Completed after 0 iterations at t[s]:    161.18
	Linear fluid (dielectric constant: 78.4, screening length: 5.74355 Bohr) occupying 0.988922 of unit cell:	Completed after 0 iterations at t[s]:    162.79
ElecMinimize: Iter:   3  Etot: -16.810639904526457  |grad|_K:  1.884e-06  alpha:  8.752e-01  linmin: -2.478e-07  t[s]:    163.69
	Linear fluid (dielectric constant: 78.4, screening length: 5.74355 Bohr) occupying 0.988922 of unit cell:	Completed after 1 iterations at t[s]:    164.87
	Linear fluid (dielectric constant: 78.4, screening length: 5.74355 Bohr) occupying 0.988922 of unit cell:	Completed after 0 iterations at t[s]:    166.49
ElecMinimize: Iter:   4  Etot: -16.810640063025563  |grad|_K:  9.221e-07  alpha:  7.958e-01  linmin: -1.557e-01  t[s]:    167.38
	Linear fluid (dielectric constant: 78.4, screening length: 5.74355 Bohr) occupying 0.988922 of unit cell:	Completed after 0 iterations at t[s]:    168.16
	Linear fluid (dielectric constant: 78.4, screening length: 5.74355 Bohr) occupying 0.988922 of unit cell:	Completed after 0 iterations at t[s]:    169.79
ElecMinimize: Iter:   5  Etot: -16.810640115372362  |grad|_K:  5.376e-07  alpha:  9.649e-01  linmin: -1.853e-07  t[s]:    170.69
	Linear fluid (dielectric constant: 78.4, screening length: 5.74355 Bohr) occupying 0.988923 of unit cell:	Completed after 0 iterations at t[s]:    171.47
	Linear fluid (dielectric constant: 78.4, screening length: 5.74355 Bohr) occupying 0.988922 of unit cell:	Completed after 0 iterations at t[s]:    173.09
ElecMinimize: Iter:   6  Etot: -16.810640130578673  |grad|_K:  3.320e-07  alpha:  9.160e-01  linmin:  1.362e-05  t[s]:    174.00
	Linear fluid (dielectric constant: 78.4, screening length: 5.74355 Bohr) occupying 0.988923 of unit cell:	Completed after 0 iterations at t[s]:    174.78
	Linear fluid (dielectric constant: 78.4, screening length: 5.74355 Bohr) occupying 0.988923 of unit cell:	Completed after 0 iterations at t[s]:    176.40
ElecMinimize: Iter:   7  Etot: -16.810640137214133  |grad|_K:  2.219e-07  alpha:  1.048e+00  linmin:  4.329e-05  t[s]:    177.30
	Linear fluid (dielectric constant: 78.4, screening length: 5.74355 Bohr) occupying 0.988923 of unit cell:	Completed after 1 iterations at t[s]:    178.51
	Linear fluid (dielectric constant: 78.4, screening length: 5.74355 Bohr) occupying 0.988923 of unit cell:	Completed after 0 iterations at t[s]:    180.33
ElecMinimize: 	Step increased Etot by 1.761812e-08, reducing alpha to 1.390119e-02.
	Linear fluid (dielectric constant: 78.4, screening length: 5.74355 Bohr) occupying 0.988923 of unit cell:	Completed after 0 iterations at t[s]:    182.00
ElecMinimize: 	Step increased Etot by 1.768387e-08, reducing alpha to 1.390119e-03.
	Linear fluid (dielectric constant: 78.4, screening length: 5.74355 Bohr) occupying 0.988923 of unit cell:	Completed after 0 iterations at t[s]:    183.67
ElecMinimize: 	Step increased Etot by 1.769517e-08, reducing alpha to 1.390119e-04.
ElecMinimize: 	Step failed to reduce Etot after 3 attempts. Quitting step.
ElecMinimize: 	Undoing step.
	Linear fluid (dielectric constant: 78.4, screening length: 5.74355 Bohr) occupying 0.988923 of unit cell:	Completed after 0 iterations at t[s]:    185.35
ElecMinimize: 	Step failed: resetting search direction.
ElecMinimize: Iter:   8  Etot: -16.810640119518762  |grad|_K:  5.360e-07  alpha:  1.390e-04
	Linear fluid (dielectric constant: 78.4, screening length: 5.74355 Bohr) occupying 0.988922 of unit cell:	Completed after 0 iterations at t[s]:    187.02
	Linear fluid (dielectric constant: 78.4, screening length: 5.74355 Bohr) occupying 0.988922 of unit cell:	Completed after 2 iterations at t[s]:    189.24
ElecMinimize: 	Step increased Etot by 8.767230e-09, reducing alpha to 1.235263e-01.
	Linear fluid (dielectric constant: 78.4, screening length: 5.74355 Bohr) occupying 0.988923 of unit cell:	Completed after 0 iterations at t[s]:    190.92
ElecMinimize: Iter:   9  Etot: -16.810640152820529  |grad|_K:  5.469e-07  alpha:  1.235e-01  linmin:  5.064e-01  t[s]:    191.82
	Linear fluid (dielectric constant: 78.4, screening length: 5.74355 Bohr) occupying 0.988923 of unit cell:	Completed after 0 iterations at t[s]:    192.60
ElecMinimize: 	Predicted alpha/alphaT>3.000000, increasing alphaT to 3.705790e-01.
	Linear fluid (dielectric constant: 78.4, screening length: 5.74355 Bohr) occupying 0.988923 of unit cell:	Completed after 0 iterations at t[s]:    194.22
	Linear fluid (dielectric constant: 78.4, screening length: 5.74355 Bohr) occupying 0.988923 of unit cell:	Completed after 0 iterations at t[s]:    195.85
ElecMinimize: Iter:  10  Etot: -16.810640154865961  |grad|_K:  5.064e-07  alpha:  3.917e-01  linmin:  1.823e-05  t[s]:    196.75
	Linear fluid (dielectric constant: 78.4, screening length: 5.74355 Bohr) occupying 0.988923 of unit cell:	Completed after 2 iterations at t[s]:    198.13
	Linear fluid (dielectric constant: 78.4, screening length: 5.74355 Bohr) occupying 0.988923 of unit cell:	Completed after 0 iterations at t[s]:    199.75
ElecMinimize: 	Step increased Etot by 2.790512e-08, reducing alpha to 3.825279e-03.
	Linear fluid (dielectric constant: 78.4, screening length: 5.74355 Bohr) occupying 0.988923 of unit cell:	Completed after 0 iterations at t[s]:    201.44
ElecMinimize: 	Step increased Etot by 2.625323e-08, reducing alpha to 3.825279e-04.
	Linear fluid (dielectric constant: 78.4, screening length: 5.74355 Bohr) occupying 0.988923 of unit cell:	Completed after 0 iterations at t[s]:    203.11
ElecMinimize: 	Step increased Etot by 2.609058e-08, reducing alpha to 3.825279e-05.
ElecMinimize: 	Step failed to reduce Etot after 3 attempts. Quitting step.
ElecMinimize: 	Undoing step.
	Linear fluid (dielectric constant: 78.4, screening length: 5.74355 Bohr) occupying 0.988923 of unit cell:	Completed after 0 iterations at t[s]:    204.79
ElecMinimize: 	Step failed: resetting search direction.
ElecMinimize: Iter:  11  Etot: -16.810640128777120  |grad|_K:  8.497e-07  alpha:  3.825e-05
	Linear fluid (dielectric constant: 78.4, screening length: 5.74355 Bohr) occupying 0.988922 of unit cell:	Completed after 0 iterations at t[s]:    206.47
ElecMinimize: 	Predicted alpha/alphaT>3.000000, increasing alphaT to 1.175146e+00.
	Linear fluid (dielectric constant: 78.4, screening length: 5.74355 Bohr) occupying 0.988922 of unit cell:	Completed after 2 iterations at t[s]:    208.72
	Linear fluid (dielectric constant: 78.4, screening length: 5.74355 Bohr) occupying 0.988922 of unit cell:	Completed after 2 iterations at t[s]:    210.93
ElecMinimize: Iter:  12  Etot: -16.810640133393647  |grad|_K:  3.429e-07  alpha:  2.956e-01  linmin:  5.506e-01  t[s]:    211.82
	Linear fluid (dielectric constant: 78.4, screening length: 5.74355 Bohr) occupying 0.988922 of unit cell:	Completed after 0 iterations at t[s]:    212.60
	Linear fluid (dielectric constant: 78.4, screening length: 5.74355 Bohr) occupying 0.988923 of unit cell:	Completed after 0 iterations at t[s]:    214.22
ElecMinimize: Iter:  13  Etot: -16.810640137216620  |grad|_K:  1.901e-07  alpha:  8.417e-01  linmin: -2.347e-04  t[s]:    215.12
ElecMinimize: Converged (|Delta Etot|<1.000000e-08 for 2 iters).
Setting wave functions to eigenvectors of Hamiltonian
Completed 5 of 7 configurations.
	Linear fluid (dielectric constant: 78.4, screening length: 5.74355 Bohr) occupying 0.988903 of unit cell:	Completed after 7 iterations at t[s]:    218.75

-------- Electronic minimization -----------
	Linear fluid (dielectric constant: 78.4, screening length: 5.74355 Bohr) occupying 0.988903 of unit cell:	Completed after 0 iterations at t[s]:    220.37
ElecMinimize: Iter:   0  Etot: -16.810592481723134  |grad|_K:  2.362e-05  alpha:  1.000e+00
	Linear fluid (dielectric constant: 78.4, screening length: 5.74355 Bohr) occupying 0.988896 of unit cell:	Completed after 7 iterations at t[s]:    223.64
	Linear fluid (dielectric constant: 78.4, screening length: 5.74355 Bohr) occupying 0.988899 of unit cell:	Completed after 6 iterations at t[s]:    226.65
ElecMinimize: Iter:   1  Etot: -16.810611338221936  |grad|_K:  7.271e-06  alpha:  5.880e-01  linmin:  1.636e-03  t[s]:    227.54
	Linear fluid (dielectric constant: 78.4, screening length: 5.74355 Bohr) occupying 0.988900 of unit cell:	Completed after 3 iterations at t[s]:    229.12
	Linear fluid (dielectric constant: 78.4, screening length: 5.74355 Bohr) occupying 0.988901 of unit cell:	Completed after 0 iterations at t[s]:    230.73
ElecMinimize: Iter:   2  Etot: -16.810613412673316  |grad|_K:  4.467e-06  alpha:  6.792e-01  linmin: -4.191e-02  t[s]:    231.63
	Linear fluid (dielectric constant: 78.4, screening length: 5.74355 Bohr) occupying 0.988902 of unit cell:	Completed after 3 iterations at t[s]:    233.21
	Linear fluid (dielectric constant: 78.4, screening length: 5.74355 Bohr) occupying 0.988902 of unit cell:	Completed after 0 iterations at t[s]:    234.83
ElecMinimize: Iter:   3  Etot: -16.810614473936578  |grad|_K:  2.365e-06  alpha:  8.798e-01  linmin: -5.095e-02  t[s]:    235.73
	Linear fluid (dielectric constant: 78.4, screening length: 5.74355 Bohr) occupying 0.988902 of unit cell:	Completed after 3 iterations at t[s]:    237.31
	Linear fluid (dielectric constant: 78.4, screening length: 5.74355 Bohr) occupying 0.988902 of unit cell:	Completed after 0 iterations at t[s]:    238.92
ElecMinimize: Iter:   4  Etot: -16.810614721360050  |grad|_K:  1.608e-06  alpha:  7.512e-01  linmin: -4.130e-02  t[s]:    239.82
	Linear fluid (dielectric constant: 78.4, screening length: 5.74355 Bohr) occupying 0.988902 of unit cell:	Completed after 2 iterations at t[s]:    241.20
	Linear fluid (dielectric constant: 78.4, screening length: 5.74355 Bohr) occupying 0.988902 of unit cell:	Completed after 0 iterations at t[s]:    242.81
ElecMinimize: Iter:   5  Etot: -16.810614804700233  |grad|_K:  1.198e-06  alpha:  5.214e-01  linmin:  5.748e-02  t[s]:    243.73
	Linear fluid (dielectric constant: 78.4, screening length: 5.74355 Bohr) occupying 0.988902 of unit cell:	Completed after 0 iterations at t[s]:    244.51
	Linear fluid (dielectric constant: 78.4, screening length: 5.74355 Bohr) occupying 0.988902 of unit cell:	Completed after 0 iterations at t[s]:    246.13
ElecMinimize: Iter:   6  Etot: -16.810614854643635  |grad|_K:  7.526e-07  alpha:  6.775e-01  linmin:  5.413e-05  t[s]:    247.03
	Linear fluid (dielectric constant: 78.4, screening length: 5.74355 Bohr) occupying 0.988902 of unit cell:	Completed after 2 iterations at t[s]:    248.41
	Linear fluid (dielectric constant: 78.4, screening length: 5.74355 Bohr) occupying 0.988902 of unit cell:	Completed after 0 iterations at t[s]:    250.24
ElecMinimize: 	Step increased Etot by 7.092382e-09, reducing alpha to 1.899241e-02.
	Linear fluid (dielectric constant: 78.4, screening length: 5.74355 Bohr) occupying 0.988902 of unit cell:	Completed after 0 iterations at t[s]:    251.91
ElecMinimize: 	Step increased Etot by 2.082476e-09, reducing alpha to 1.899241e-03.
	Linear fluid (dielectric constant: 78.4, screening length: 5.74355 Bohr) occupying 0.988902 of unit cell:	Completed after 0 iterations at t[s]:    253.59
ElecMinimize: 	Step increased Etot by 1.731486e-09, reducing alpha to 1.899241e-04.
ElecMinimize: 	Step failed to reduce Etot after 3 attempts. Quitting step.
ElecMinimize: 	Undoing step.
	Linear fluid (dielectric constant: 78.4, screening length: 5.74355 Bohr) occupying 0.988902 of unit cell:	Completed after 0 iterations at t[s]:    255.26
ElecMinimize: 	Step failed: resetting search direction.
ElecMinimize: Iter:   7  Etot: -16.810614852916096  |grad|_K:  9.069e-07  alpha:  1.899e-04
	Linear fluid (dielectric constant: 78.4, screening length: 5.74355 Bohr) occupying 0.988902 of unit cell:	Completed after 2 iterations at t[s]:    257.53
	Linear fluid (dielectric constant: 78.4, screening length: 5.74355 Bohr) occupying 0.988902 of unit cell:	Completed after 0 iterations at t[s]:    259.14
ElecMinimize: Iter:   8  Etot: -16.810614856412453  |grad|_K:  9.745e-07  alpha:  2.362e-01  linmin:  3.698e-01  t[s]:    260.04
	Linear fluid (dielectric constant: 78.4, screening length: 5.74355 Bohr) occupying 0.988902 of unit cell:	Completed after 0 iterations at t[s]:    260.82
	Linear fluid (dielectric constant: 78.4, screening length: 5.74355 Bohr) occupying 0.988902 of unit cell:	Completed after 0 iterations at t[s]:    262.44
ElecMinimize: Iter:   9  Etot: -16.810614865045526  |grad|_K:  9.043e-07  alpha:  3.360e-01  linmin:  1.817e-07  t[s]:    263.34
ElecMinimize: Converged (|Delta Etot|<1.000000e-08 for 2 iters).
Setting wave functions to eigenvectors of Hamiltonian
Completed 6 of 7 configurations.
	Linear fluid (dielectric constant: 78.4, screening length: 5.74355 Bohr) occupying 0.988942 of unit cell:	Completed after 8 iterations at t[s]:    267.15

-------- Electronic minimization -----------
	Linear fluid (dielectric constant: 78.4, screening length: 5.74355 Bohr) occupying 0.988942 of unit cell:	Completed after 0 iterations at t[s]:    268.77
ElecMinimize: Iter:   0  Etot: -16.810557726094007  |grad|_K:  3.696e-05  alpha:  1.000e+00
	Linear fluid (dielectric constant: 78.4, screening length: 5.74355 Bohr) occupying 0.988955 of unit cell:	Completed after 8 iterations at t[s]:    272.24
	Linear fluid (dielectric constant: 78.4, screening length: 5.74355 Bohr) occupying 0.988949 of unit cell:	Completed after 7 iterations at t[s]:    275.45
ElecMinimize: Iter:   1  Etot: -16.810603052583268  |grad|_K:  1.226e-05  alpha:  5.774e-01  linmin:  8.595e-04  t[s]:    276.34
	Linear fluid (dielectric constant: 78.4, screening length: 5.74355 Bohr) occupying 0.988947 of unit cell:	Completed after 3 iterations at t[s]:    277.92
	Linear fluid (dielectric constant: 78.4, screening length: 5.74355 Bohr) occupying 0.988946 of unit cell:	Completed after 2 iterations at t[s]:    280.14
ElecMinimize: Iter:   2  Etot: -16.810608867217372  |grad|_K:  8.032e-06  alpha:  6.747e-01  linmin: -1.660e-03  t[s]:    281.03
	Linear fluid (dielectric constant: 78.4, screening length: 5.74355 Bohr) occupying 0.988944 of unit cell:	Completed after 3 iterations at t[s]:    282.61
	Linear fluid (dielectric constant: 78.4, screening length: 5.74355 Bohr) occupying 0.988944 of unit cell:	Completed after 2 iterations at t[s]:    284.82
ElecMinimize: Iter:   3  Etot: -16.810612064086804  |grad|_K:  4.351e-06  alpha:  8.622e-01  linmin:  9.837e-04  t[s]:    285.71
	Linear fluid (dielectric constant: 78.4, screening length: 5.74355 Bohr) occupying 0.988943 of unit cell:	Completed after 2 iterations at t[s]:    287.10
	Linear fluid (dielectric constant: 78.4, screening length: 5.74355 Bohr) occupying 0.988943 of unit cell:	Completed after 0 iterations at t[s]:    289.02
ElecMinimize: Iter:   4  Etot: -16.810612948289549  |grad|_K:  2.196e-06  alpha:  8.140e-01  linmin:  1.280e-03  t[s]:    289.96
	Linear fluid (dielectric constant: 78.4, screening length: 5.74355 Bohr) occupying 0.988943 of unit cell:	Completed after 0 iterations at t[s]:    290.75
	Linear fluid (dielectric constant: 78.4, screening length: 5.74355 Bohr) occupying 0.988943 of unit cell:	Completed after 0 iterations at t[s]:    292.47
ElecMinimize: Iter:   5  Etot: -16.810613216670649  |grad|_K:  1.138e-06  alpha:  9.696e-01  linmin:  2.487e-05  t[s]:    293.55
	Linear fluid (dielectric constant: 78.4, screening length: 5.74355 Bohr) occupying 0.988943 of unit cell:	Completed after 0 iterations at t[s]:    294.44
	Linear fluid (dielectric constant: 78.4, screening length: 5.74355 Bohr) occupying 0.988943 of unit cell:	Completed after 0 iterations at t[s]:    296.35
ElecMinimize: Iter:   6  Etot: -16.810613277396147  |grad|_K:  5.898e-07  alpha:  8.157e-01  linmin:  1.216e-05  t[s]:    297.41
	Linear fluid (dielectric constant: 78.4, screening length: 5.74355 Bohr) occupying 0.988943 of unit cell:	Completed after 0 iterations at t[s]:    298.33
	Linear fluid (dielectric constant: 78.4, screening length: 5.74355 Bohr) occupying 0.988943 of unit cell:	Completed after 0 iterations at t[s]:    300.06
ElecMinimize: Iter:   7  Etot: -16.810613296144648  |grad|_K:  3.100e-07  alpha:  9.382e-01  linmin: -2.158e-05  t[s]:    301.08
	Linear fluid (dielectric constant: 78.4, screening length: 5.74355 Bohr) occupying 0.988942 of unit cell:	Completed after 0 iterations at t[s]:    301.89
	Linear fluid (dielectric constant: 78.4, screening length: 5.74355 Bohr) occupying 0.988942 of unit cell:	Completed after 0 iterations at t[s]:    303.81
ElecMinimize: Iter:   8  Etot: -16.810613301499224  |grad|_K:  1.606e-07  alpha:  9.696e-01  linmin:  3.779e-05  t[s]:    305.17
	Linear fluid (dielectric constant: 78.4, screening length: 5.74355 Bohr) occupying 0.988942 of unit cell:	Completed after 0 iterations at t[s]:    306.31
	Linear fluid (dielectric constant: 78.4, screening length: 5.74355 Bohr) occupying 0.988942 of unit cell:	Completed after 0 iterations at t[s]:    308.20
ElecMinimize: Iter:   9  Etot: -16.810613302775600  |grad|_K:  8.300e-08  alpha:  8.616e-01  linmin:  1.541e-04  t[s]:    309.37
ElecMinimize: Converged (|Delta Etot|<1.000000e-08 for 2 iters).
Setting wave functions to eigenvectors of Hamiltonian
Completed 7 of 7 configurations.

Relative symmetry error in force matrix = 0.0183123
Projected out 5 rotation+translation modes
0 imaginary modes, 5 modes within cutoff, 1 real modes.

Zero mode 1:
Frequency: 0.000034i Eh [ 7i cm^-1 ]
Degeneracy: 1 of 5
IR intensity: 0.0000 e^2/amu [ 0.0 km/mol ]
Displacements:
disp O   0.000000000000000   0.000000000000000   0.005676610388575
disp H   0.000000000000000   0.000000000000000   0.005723346585272

Zero mode 2:
Frequency: 0.000000i Eh [ 0i cm^-1 ]
Degeneracy: 2 of 5
IR intensity: 0.0001 e^2/amu [ 0.1 km/mol ]
Displacements:
disp O   0.005716117650576   0.000000000000000   0.000000000000000
disp H   0.005060846361799   0.000000000000000   0.000000000000000

Zero mode 3:
Frequency: 0.000000i Eh [ 0i cm^-1 ]
Degeneracy: 3 of 5
IR intensity: 0.0090 e^2/amu [ 8.8 km/mol ]
Displacements:
disp O   0.000000000000000   0.005855555644734   0.000000000000000
disp H  -0.000000000000000   0.000000000000000   0.000000000000000

Zero mode 4:
Frequency: 0.000000 Eh [ 0 cm^-1 ]
Degeneracy: 4 of 5
IR intensity: 0.1434 e^2/amu [ 139.8 km/mol ]
Displacements:
disp O                 nan                 nan                 nan
disp H   0.000000000000000   0.023329349012069   0.000000000000000

Zero mode 5:
Frequency: 0.000000 Eh [ 0 cm^-1 ]
Degeneracy: 5 of 5
IR intensity: 0.1524 e^2/amu [ 148.5 km/mol ]
Displacements:
disp O   0.001270248366795  -0.000000000000000   0.000000000000000
disp H  -0.022773808628097   0.000000000000000   0.000000000000000

Real mode 1:
Frequency: 0.017426 Eh [ 3825 cm^-1 ]
Degeneracy: 1 of 1
IR intensity: 0.0009 e^2/amu [ 0.9 km/mol ]
Displacements:
disp O   0.000000000000000   0.000000000000000   0.001436532771953
disp H   0.000000000000000   0.000000000000000  -0.022616406195322

Vibrational free energy components at T = 298 K:
	ZPE:          0.008713
	Evib:         0.008713
	TSvib:        0.000000
	Avib:         0.008713

End date and time: Sun Mar  3 23:39:00 2019  (Duration: 0-0:05:10.89)
Done!
