
*************** JDFTx 1.4.2  ***************

Start date and time: Sun Mar  3 23:31:06 2019
Executable jdftx with command-line: -i totalE.in
Running on hosts (process indices):  Juans-MBP.lan1 (0)
Divided in process groups (process indices):  0 (0)
Resource initialization completed at t[s]:      0.00
Run totals: 1 processes, 12 threads, 0 GPUs


Input parsed successfully to the following command list (including defaults):

basis kpoint-dependent
coords-type Cartesian
core-overlap-check vector
coulomb-interaction Isolated
coulomb-truncation-embed 0 0 0
davidson-band-ratio 1.1
dump End None State BoundCharge
dump 
dump-name OH-.$VAR
elec-cutoff 20 100
elec-eigen-algo Davidson
elec-ex-corr gga-PBE
elec-initial-charge 1.000000
electronic-minimize  \
	dirUpdateScheme      FletcherReeves \
	linminMethod         DirUpdateRecommended \
	nIterations          100 \
	history              15 \
	knormThreshold       0 \
	energyDiffThreshold  1e-08 \
	nEnergyDiff          2 \
	alphaTstart          1 \
	alphaTmin            1e-10 \
	updateTestStepSize   yes \
	alphaTreduceFactor   0.1 \
	alphaTincreaseFactor 3 \
	nAlphaAdjustMax      3 \
	wolfeEnergy          0.0001 \
	wolfeGradient        0.9 \
	fdTest               no
exchange-regularization None
fluid LinearPCM 298.000000 1.013250
fluid-anion F- 1 MeanFieldLJ \
	epsBulk 1 \
	pMol 0 \
	epsInf 1 \
	Pvap 0 \
	sigmaBulk 0 \
	Rvdw 2.24877 \
	Res 0
fluid-cation Na+ 1 MeanFieldLJ \
	epsBulk 1 \
	pMol 0 \
	epsInf 1 \
	Pvap 0 \
	sigmaBulk 0 \
	Rvdw 2.19208 \
	Res 0
fluid-ex-corr lda-TF lda-PZ
fluid-gummel-loop 10 1.000000e-05
fluid-minimize  \
	dirUpdateScheme      PolakRibiere \
	linminMethod         DirUpdateRecommended \
	nIterations          400 \
	history              15 \
	knormThreshold       1e-11 \
	energyDiffThreshold  0 \
	nEnergyDiff          2 \
	alphaTstart          1 \
	alphaTmin            1e-10 \
	updateTestStepSize   yes \
	alphaTreduceFactor   0.1 \
	alphaTincreaseFactor 3 \
	nAlphaAdjustMax      6 \
	wolfeEnergy          0.0001 \
	wolfeGradient        0.9 \
	fdTest               no
fluid-solvent H2O 55.338 ScalarEOS \
	epsBulk 78.4 \
	pMol 0.92466 \
	epsInf 1.77 \
	Pvap 1.06736e-10 \
	sigmaBulk 4.62e-05 \
	Rvdw 2.61727 \
	Res 1.42
forces-output-coords Positions
initial-state OH-.$VAR
ion O   0.000000000000000   0.000000000000000   0.000000000000000 0
ion H   0.000000000000000   0.000000000000000   1.840000000000000 1
ion-species GBRV/$ID_pbe.uspp
ion-width Ecut
ionic-minimize  \
	dirUpdateScheme      L-BFGS \
	linminMethod         DirUpdateRecommended \
	nIterations          10 \
	history              15 \
	knormThreshold       0.0001 \
	energyDiffThreshold  1e-06 \
	nEnergyDiff          2 \
	alphaTstart          1 \
	alphaTmin            1e-10 \
	updateTestStepSize   yes \
	alphaTreduceFactor   0.1 \
	alphaTincreaseFactor 3 \
	nAlphaAdjustMax      3 \
	wolfeEnergy          0.0001 \
	wolfeGradient        0.9 \
	fdTest               no
kpoint   0.000000000000   0.000000000000   0.000000000000  1.00000000000000
kpoint-folding 1 1 1 
latt-move-scale 1 1 1
latt-scale 1 1 1 
lattice Cubic 15
lattice-minimize  \
	dirUpdateScheme      L-BFGS \
	linminMethod         DirUpdateRecommended \
	nIterations          0 \
	history              15 \
	knormThreshold       0 \
	energyDiffThreshold  1e-06 \
	nEnergyDiff          2 \
	alphaTstart          1 \
	alphaTmin            1e-10 \
	updateTestStepSize   yes \
	alphaTreduceFactor   0.1 \
	alphaTincreaseFactor 3 \
	nAlphaAdjustMax      3 \
	wolfeEnergy          0.0001 \
	wolfeGradient        0.9 \
	fdTest               no
lcao-params -1 1e-06 0.001
pcm-variant CANDLE
spintype no-spin
subspace-rotation-factor 1 yes
symmetries automatic
symmetry-threshold 0.0001



---------- Setting up symmetries ----------

Found 48 point-group symmetries of the bravais lattice
Found 8 space-group symmetries with basis
Applied RMS atom displacement 0 bohrs to make symmetries exact.

---------- Initializing the Grid ----------
R = 
[         15          0          0  ]
[          0         15          0  ]
[          0          0         15  ]
unit cell volume = 3375
G =
[   0.418879          0          0  ]
[          0   0.418879          0  ]
[          0          0   0.418879  ]
Minimum fftbox size, Smin = [  68  68  68  ]
Chosen fftbox size, S = [  70  70  70  ]

---------- Initializing tighter grid for wavefunction operations ----------
R = 
[         15          0          0  ]
[          0         15          0  ]
[          0          0         15  ]
unit cell volume = 3375
G =
[   0.418879          0          0  ]
[          0   0.418879          0  ]
[          0          0   0.418879  ]
Minimum fftbox size, Smin = [  64  64  64  ]
Chosen fftbox size, S = [  64  64  64  ]

---------- Exchange Correlation functional ----------
Initalized PBE GGA exchange.
Initalized PBE GGA correlation.

---------- Setting up pseudopotentials ----------
Width of ionic core gaussian charges (only for fluid interactions / plotting) set to 0.397384

Reading pseudopotential file '/Users/juanmendezvalderrama/Documents/JDFTX/build/pseudopotentials/GBRV/o_pbe.uspp':
  Title: O.  Created by USPP 7.3.6 on 3-2-2014
  Reference state energy: -15.894388.  6 valence electrons in orbitals:
    |200>  occupation: 2  eigenvalue: -0.878823
    |210>  occupation: 4  eigenvalue: -0.332131
  lMax: 2  lLocal: 2  QijEcut: 6
  5 projectors sampled on a log grid with 511 points:
    l: 0  eig: -0.878823  rCut: 1.25
    l: 0  eig: 0.000000  rCut: 1.25
    l: 1  eig: -0.332132  rCut: 1.25
    l: 1  eig: 0.000000  rCut: 1.25
    l: 2  eig: 1.000000  rCut: 1.25
  Partial core density with radius 0.7
  Transforming core density to a uniform radial grid of dG=0.02 with 1275 points.
  Transforming local potential to a uniform radial grid of dG=0.02 with 1275 points.
  Transforming nonlocal projectors to a uniform radial grid of dG=0.02 with 432 points.
  Transforming density augmentations to a uniform radial grid of dG=0.02 with 1275 points.
  Transforming atomic orbitals to a uniform radial grid of dG=0.02 with 432 points.
  Core radius for overlap checks: 1.25 bohrs.

Reading pseudopotential file '/Users/juanmendezvalderrama/Documents/JDFTX/build/pseudopotentials/GBRV/h_pbe.uspp':
  Title: H.  Created by USPP 7.3.6 on 2-4-15
  Reference state energy: -0.458849.  1 valence electrons in orbitals:
    |100>  occupation: 1  eigenvalue: -0.238595
  lMax: 0  lLocal: 1  QijEcut: 6
  2 projectors sampled on a log grid with 395 points:
    l: 0  eig: -0.238595  rCut: 1.2
    l: 0  eig: 1.000000  rCut: 1.2
  Transforming local potential to a uniform radial grid of dG=0.02 with 1275 points.
  Transforming nonlocal projectors to a uniform radial grid of dG=0.02 with 432 points.
  Transforming density augmentations to a uniform radial grid of dG=0.02 with 1275 points.
  Transforming atomic orbitals to a uniform radial grid of dG=0.02 with 432 points.
  Core radius for overlap checks: 1.20 bohrs.

Initialized 2 species with 2 total atoms.

Folded 1 k-points by 1x1x1 to 1 k-points.

---------- Setting up k-points, bands, fillings ----------
No reducable k-points. 
Computing the number of bands and number of electrons
Calculating initial fillings.
nElectrons:   8.000000   nBands: 4   nStates: 1

----- Setting up reduced wavefunction bases (one per k-point) -----
average nbasis = 14363.000 , ideal nbasis = 14418.257

---------- Setting up coulomb interaction ----------
Fluid mode embedding: using embedded box, but periodic Coulomb kernel.
(Fluid response is responsible for (approximate) separation between periodic images.)
Setting up double-sized grid for truncated Coulomb potentials:
R = 
[         30          0          0  ]
[          0         30          0  ]
[          0          0         30  ]
unit cell volume = 27000
G =
[    0.20944          0          0  ]
[          0    0.20944          0  ]
[          0          0    0.20944  ]
Chosen fftbox size, S = [  140  140  140  ]
Integer grid location selected as the embedding center:
   Grid: [  0  0  0  ]
   Lattice: [  0  0  0  ]
   Cartesian: [  0  0  0  ]
Constructing Wigner-Seitz cell: 6 faces (6 quadrilaterals, 0 hexagons)
Range-separation parameter for embedded mesh potentials due to point charges: 0.583992 bohrs.

Initializing van der Waals corrections
	NOTE: vdW corrections apply only for interactions with fluid.
	 O:  C6:   12.14 Eh-a0^6  R0: 2.536 a0
	 H:  C6:    2.43 Eh-a0^6  R0: 1.892 a0

---------- Setting up ewald sum ----------
Optimum gaussian width for ewald sums = 10.662515 bohr.
Real space sum over 1331 unit cells with max indices [  5  5  5  ]
Reciprocal space sum over 2197 terms with max indices [  6  6  6  ]

---------- Allocating electronic variables ----------
Initializing wave functions:  linear combination of atomic orbitals
O pseudo-atom occupations:   s ( 2 )  p ( 4 )
H pseudo-atom occupations:   s ( 1 )
	FillingsUpdate:  mu: +0.100000000  nElectrons: 8.000000
LCAOMinimize: Iter:   0  Etot: -16.3964700212070227  |grad|_K:  1.189e-01  alpha:  1.000e+00
	FillingsUpdate:  mu: +0.300000000  nElectrons: 8.000000
LCAOMinimize: Iter:   1  Etot: -16.4920477634216951  |grad|_K:  2.705e-03  alpha:  5.336e-01  linmin:  1.369e-01  cgtest: -6.618e-01  t[s]:      5.29
	FillingsUpdate:  mu: +0.300000000  nElectrons: 8.000000
LCAOMinimize: Iter:   2  Etot: -16.4921198062121519  |grad|_K:  1.669e-03  alpha:  6.494e-01  linmin:  2.356e-03  cgtest:  5.080e-01  t[s]:      5.64
	FillingsUpdate:  mu: +0.300000000  nElectrons: 8.000000
LCAOMinimize: Iter:   3  Etot: -16.4921473300713046  |grad|_K:  6.052e-05  alpha:  5.480e-01  linmin:  3.758e-02  cgtest: -3.952e-02  t[s]:      5.99
LCAOMinimize: None of the convergence criteria satisfied after 3 iterations.
----- createFluidSolver() ----- (Fluid-side solver setup)
   Initializing fluid molecule 'H2O'
     Initializing site 'O'
       Electron density: proportional to exp(-r/0.36935)*erfc((r-0.51523)/0.36823) with norm 6.826
       Charge density: gaussian nuclear width 0.478731 with net site charge 0.826
       Polarizability: cuspless exponential with width 0.32 and norm 3.73
       Hard sphere radius: 2.57003 bohrs
       Positions in reference frame:
         [ +0.000000 +0.000000 +0.000000 ]
     Initializing site 'H'
       Electron density: proportional to exp(-r/0.34641)*erfc((r-0)/0.390882) with norm 0.587
       Charge density: gaussian nuclear width 0.377945 with net site charge -0.413
       Polarizability: cuspless exponential with width 0.39 and norm 3.3
       Positions in reference frame:
         [ +0.000000 -1.441945 +1.122523 ]
         [ +0.000000 +1.441945 +1.122523 ]
     Net charge: 0   dipole magnitude: 0.927204
     Initializing spherical shell mfKernel with radius 2.61727 Bohr
     deltaS corrections:
       site 'O': -7.54299
       site 'H': -6.83917
   Initializing fluid molecule 'Na+'
     Initializing site 'Na'
       Electron density: proportional to exp(-r/0.19682)*erfc((r-0.71491)/0.41314) with norm 8.1383
       Charge density: gaussian nuclear width 0.365347 with net site charge -1
       Hard sphere radius: 1.86327 bohrs
       Positions in reference frame:
         [ +0.000000 +0.000000 +0.000000 ]
     Net charge: -1   dipole magnitude: 0
     Initializing gaussian mfKernel with width: 1.55004 Bohr
     deltaS corrections:
       site 'Na': -22.3555
   Initializing fluid molecule 'F-'
     Initializing site 'F'
       Electron density: proportional to exp(-r/0.38886)*erfc((r-0)/0.438782) with norm 8
       Charge density: gaussian nuclear width 0.374796 with net site charge 1
       Hard sphere radius: 2.39995 bohrs
       Positions in reference frame:
         [ +0.000000 +0.000000 +0.000000 ]
     Net charge: 1   dipole magnitude: 0
     Initializing gaussian mfKernel with width: 1.59012 Bohr
     deltaS corrections:
       site 'F': -9.04335

Correction to mu due to finite nuclear width = -0.000257237
   Cavity determined by nc: 0.00142 and sigma: 0.707107
   Nonlocal vdW cavity from gaussian model electron density with norm = 8 and sigma = 0.993594 bohr
   Charge asymmetry in cavity with sensitivity pCavity = 36.5 e-bohr/Eh
   Electrostatic cavity expanded by eta = 1.46 bohrs
   Weighted density cavitation model constrained by Nbulk: 0.0049383 bohr^-3, Pvap: 3.14029 kPa, Rvdw: 2.61727 bohr and sigmaBulk: 4.62e-05 Eh/bohr^2 at T: 298 K.
   Weighted density dispersion model using vdW pair potentials with single solvent site with sqrtC6eff: 0.77 SI.


---- Citations for features of the code used in this run ----

   Software package:
      R. Sundararaman, K. Letchworth-Weaver, K.A. Schwarz, D. Gunceler, Y. Ozhabes and T.A. Arias, 'JDFTx: software for joint density-functional theory', SoftwareX 6, 278 (2017)

   gga-PBE exchange-correlation functional:
      J.P. Perdew, K. Burke and M. Ernzerhof, Phys. Rev. Lett. 77, 3865 (1996)

   Pseudopotentials:
      KF Garrity, JW Bennett, KM Rabe and D Vanderbilt, Comput. Mater. Sci. 81, 446 (2014)

   Truncated Coulomb potentials:
      R. Sundararaman and T.A. Arias, Phys. Rev. B 87, 165122 (2013)

   Van der Waals correction pair-potentials:
      S. Grimme, J. Comput. Chem. 27, 1787 (2006)

   Charge-asymmetric nonlocally-determined local-electric (CANDLE) solvation model:
      R. Sundararaman and W.A. Goddard III, J. Chem. Phys. 142, 064107 (2015)

   Total energy minimization:
      T.A. Arias, M.C. Payne and J.D. Joannopoulos, Phys. Rev. Lett. 69, 1077 (1992)

This list may not be complete. Please suggest additional citations or
report any other bugs at https://github.com/shankar1729/jdftx/issues

Initialization completed successfully at t[s]:      6.40

Fluid solver invoked on fresh (partially random / LCAO) wavefunctions
Running a vacuum solve first:

-------- Initial electronic minimization -----------
ElecMinimize: Iter:   0  Etot: -16.492147330071326  |grad|_K:  2.027e-03  alpha:  1.000e+00
ElecMinimize: Iter:   1  Etot: -16.609477059217937  |grad|_K:  9.621e-04  alpha:  4.947e-01  linmin: -1.652e-02  t[s]:      7.03
ElecMinimize: Iter:   2  Etot: -16.653342243125785  |grad|_K:  6.299e-04  alpha:  8.171e-01  linmin:  2.883e-03  t[s]:      7.48
ElecMinimize: Iter:   3  Etot: -16.675103164809151  |grad|_K:  3.469e-04  alpha:  9.584e-01  linmin:  4.602e-03  t[s]:      7.94
ElecMinimize: Iter:   4  Etot: -16.682149877752899  |grad|_K:  2.671e-04  alpha:  1.024e+00  linmin:  3.474e-03  t[s]:      8.30
ElecMinimize: Iter:   5  Etot: -16.685439869471253  |grad|_K:  1.874e-04  alpha:  8.092e-01  linmin: -1.482e-03  t[s]:      8.83
ElecMinimize: Iter:   6  Etot: -16.687034271757447  |grad|_K:  1.188e-04  alpha:  7.883e-01  linmin:  5.139e-03  t[s]:      9.23
ElecMinimize: Iter:   7  Etot: -16.687950197528792  |grad|_K:  8.352e-05  alpha:  1.136e+00  linmin: -1.914e-03  t[s]:      9.61
ElecMinimize: Iter:   8  Etot: -16.688367531039358  |grad|_K:  6.281e-05  alpha:  1.039e+00  linmin: -6.694e-04  t[s]:      9.96
ElecMinimize: Iter:   9  Etot: -16.688563357253010  |grad|_K:  4.918e-05  alpha:  8.622e-01  linmin:  9.790e-04  t[s]:     10.33
ElecMinimize: Iter:  10  Etot: -16.688677394031465  |grad|_K:  3.081e-05  alpha:  8.222e-01  linmin: -1.322e-03  t[s]:     10.67
ElecMinimize: Iter:  11  Etot: -16.688735599324126  |grad|_K:  2.218e-05  alpha:  1.065e+00  linmin:  2.735e-05  t[s]:     11.03
ElecMinimize: Iter:  12  Etot: -16.688762086905140  |grad|_K:  1.460e-05  alpha:  9.368e-01  linmin:  2.977e-04  t[s]:     11.42
ElecMinimize: Iter:  13  Etot: -16.688772140801543  |grad|_K:  1.056e-05  alpha:  8.218e-01  linmin: -2.443e-04  t[s]:     11.91
ElecMinimize: Iter:  14  Etot: -16.688777073152131  |grad|_K:  6.252e-06  alpha:  7.691e-01  linmin:  1.121e-04  t[s]:     12.35
ElecMinimize: Iter:  15  Etot: -16.688779110852408  |grad|_K:  3.889e-06  alpha:  9.075e-01  linmin: -1.968e-05  t[s]:     12.85
ElecMinimize: Iter:  16  Etot: -16.688779957876612  |grad|_K:  2.724e-06  alpha:  9.746e-01  linmin: -3.031e-05  t[s]:     13.36
ElecMinimize: Iter:  17  Etot: -16.688780322854523  |grad|_K:  1.932e-06  alpha:  8.563e-01  linmin:  3.385e-05  t[s]:     13.72
ElecMinimize: Iter:  18  Etot: -16.688780494815752  |grad|_K:  1.373e-06  alpha:  8.018e-01  linmin: -3.142e-05  t[s]:     14.09
ElecMinimize: Iter:  19  Etot: -16.688780607738064  |grad|_K:  1.080e-06  alpha:  1.042e+00  linmin:  3.089e-05  t[s]:     14.44
ElecMinimize: Iter:  20  Etot: -16.688780698367744  |grad|_K:  9.560e-07  alpha:  1.353e+00  linmin:  1.561e-05  t[s]:     14.80
ElecMinimize: Iter:  21  Etot: -16.688780754752443  |grad|_K:  8.899e-07  alpha:  1.074e+00  linmin: -1.680e-05  t[s]:     15.15
ElecMinimize: Iter:  22  Etot: -16.688780798140783  |grad|_K:  7.953e-07  alpha:  9.536e-01  linmin:  2.007e-05  t[s]:     15.51
ElecMinimize: Iter:  23  Etot: -16.688780851485390  |grad|_K:  8.709e-07  alpha:  1.468e+00  linmin: -3.465e-06  t[s]:     15.87
ElecMinimize: Iter:  24  Etot: -16.688780925157971  |grad|_K:  9.331e-07  alpha:  1.691e+00  linmin: -1.243e-05  t[s]:     16.22
ElecMinimize: Iter:  25  Etot: -16.688780984985328  |grad|_K:  9.316e-07  alpha:  1.196e+00  linmin:  6.713e-06  t[s]:     16.59
ElecMinimize: Iter:  26  Etot: -16.688781034042204  |grad|_K:  8.411e-07  alpha:  9.840e-01  linmin: -3.027e-05  t[s]:     16.95
ElecMinimize: Iter:  27  Etot: -16.688781078398421  |grad|_K:  6.029e-07  alpha:  1.091e+00  linmin:  4.096e-05  t[s]:     17.30
ElecMinimize: Iter:  28  Etot: -16.688781101849781  |grad|_K:  3.966e-07  alpha:  1.123e+00  linmin:  5.766e-06  t[s]:     17.66
ElecMinimize: Iter:  29  Etot: -16.688781109092112  |grad|_K:  2.855e-07  alpha:  8.016e-01  linmin: -1.767e-06  t[s]:     18.02
ElecMinimize: Iter:  30  Etot: -16.688781112899548  |grad|_K:  1.987e-07  alpha:  8.127e-01  linmin: -6.034e-06  t[s]:     18.38
ElecMinimize: Converged (|Delta Etot|<1.000000e-08 for 2 iters).
Setting wave functions to eigenvectors of Hamiltonian
Vacuum energy after initial minimize, Etot = -16.688781112899548

	Linear fluid (dielectric constant: 78.4, screening length: 5.74355 Bohr) occupying 0.987809 of unit cell:	Completed after 20 iterations at t[s]:     24.32

-------- Electronic minimization -----------
	Linear fluid (dielectric constant: 78.4, screening length: 5.74355 Bohr) occupying 0.987809 of unit cell:	Completed after 0 iterations at t[s]:     25.97
ElecMinimize: Iter:   0  Etot: -16.792684988378578  |grad|_K:  3.842e-04  alpha:  1.000e+00
	Linear fluid (dielectric constant: 78.4, screening length: 5.74355 Bohr) occupying 0.988410 of unit cell:	Completed after 16 iterations at t[s]:     31.11
	Linear fluid (dielectric constant: 78.4, screening length: 5.74355 Bohr) occupying 0.988576 of unit cell:	Completed after 11 iterations at t[s]:     35.17
ElecMinimize: Iter:   1  Etot: -16.804526057649380  |grad|_K:  3.252e-04  alpha:  1.377e+00  linmin: -3.103e-02  t[s]:     36.07
	Linear fluid (dielectric constant: 78.4, screening length: 5.74355 Bohr) occupying 0.989007 of unit cell:	Completed after 13 iterations at t[s]:     39.92
	Linear fluid (dielectric constant: 78.4, screening length: 5.74355 Bohr) occupying 0.988806 of unit cell:	Completed after 11 iterations at t[s]:     43.92
ElecMinimize: Iter:   2  Etot: -16.808476077999448  |grad|_K:  1.819e-04  alpha:  6.169e-01  linmin: -8.375e-03  t[s]:     44.82
	Linear fluid (dielectric constant: 78.4, screening length: 5.74355 Bohr) occupying 0.988918 of unit cell:	Completed after 10 iterations at t[s]:     47.76
	Linear fluid (dielectric constant: 78.4, screening length: 5.74355 Bohr) occupying 0.988951 of unit cell:	Completed after 8 iterations at t[s]:     51.15
ElecMinimize: Iter:   3  Etot: -16.810054264212393  |grad|_K:  8.662e-05  alpha:  8.208e-01  linmin: -3.424e-03  t[s]:     52.04
	Linear fluid (dielectric constant: 78.4, screening length: 5.74355 Bohr) occupying 0.988949 of unit cell:	Completed after 5 iterations at t[s]:     54.02
	Linear fluid (dielectric constant: 78.4, screening length: 5.74355 Bohr) occupying 0.988948 of unit cell:	Completed after 3 iterations at t[s]:     56.42
ElecMinimize: Iter:   4  Etot: -16.810466259125135  |grad|_K:  4.337e-05  alpha:  9.530e-01  linmin:  4.964e-04  t[s]:     57.32
	Linear fluid (dielectric constant: 78.4, screening length: 5.74355 Bohr) occupying 0.988948 of unit cell:	Completed after 4 iterations at t[s]:     59.09
	Linear fluid (dielectric constant: 78.4, screening length: 5.74355 Bohr) occupying 0.988948 of unit cell:	Completed after 0 iterations at t[s]:     60.70
ElecMinimize: Iter:   5  Etot: -16.810571415223951  |grad|_K:  2.397e-05  alpha:  9.735e-01  linmin: -9.735e-04  t[s]:     61.60
	Linear fluid (dielectric constant: 78.4, screening length: 5.74355 Bohr) occupying 0.988943 of unit cell:	Completed after 6 iterations at t[s]:     63.77
	Linear fluid (dielectric constant: 78.4, screening length: 5.74355 Bohr) occupying 0.988944 of unit cell:	Completed after 2 iterations at t[s]:     65.98
ElecMinimize: Iter:   6  Etot: -16.810597872776889  |grad|_K:  1.250e-05  alpha:  7.997e-01  linmin:  2.619e-03  t[s]:     66.87
	Linear fluid (dielectric constant: 78.4, screening length: 5.74355 Bohr) occupying 0.988946 of unit cell:	Completed after 4 iterations at t[s]:     68.66
	Linear fluid (dielectric constant: 78.4, screening length: 5.74355 Bohr) occupying 0.988946 of unit cell:	Completed after 2 iterations at t[s]:     70.87
ElecMinimize: Iter:   7  Etot: -16.810603890604582  |grad|_K:  6.265e-06  alpha:  6.733e-01  linmin:  3.159e-03  t[s]:     71.76
	Linear fluid (dielectric constant: 78.4, screening length: 5.74355 Bohr) occupying 0.988945 of unit cell:	Completed after 3 iterations at t[s]:     73.33
	Linear fluid (dielectric constant: 78.4, screening length: 5.74355 Bohr) occupying 0.988945 of unit cell:	Completed after 0 iterations at t[s]:     74.95
ElecMinimize: Iter:   8  Etot: -16.810605435019394  |grad|_K:  3.191e-06  alpha:  6.866e-01  linmin: -1.211e-02  t[s]:     75.86
	Linear fluid (dielectric constant: 78.4, screening length: 5.74355 Bohr) occupying 0.988945 of unit cell:	Completed after 0 iterations at t[s]:     76.63
	Linear fluid (dielectric constant: 78.4, screening length: 5.74355 Bohr) occupying 0.988945 of unit cell:	Completed after 1 iterations at t[s]:     78.65
ElecMinimize: Iter:   9  Etot: -16.810605895798389  |grad|_K:  1.648e-06  alpha:  8.127e-01  linmin:  3.991e-02  t[s]:     79.54
	Linear fluid (dielectric constant: 78.4, screening length: 5.74355 Bohr) occupying 0.988945 of unit cell:	Completed after 0 iterations at t[s]:     80.52
	Linear fluid (dielectric constant: 78.4, screening length: 5.74355 Bohr) occupying 0.988945 of unit cell:	Completed after 0 iterations at t[s]:     82.13
ElecMinimize: Iter:  10  Etot: -16.810606010961440  |grad|_K:  6.859e-07  alpha:  7.693e-01  linmin: -4.135e-02  t[s]:     83.03
	Linear fluid (dielectric constant: 78.4, screening length: 5.74355 Bohr) occupying 0.988945 of unit cell:	Completed after 0 iterations at t[s]:     83.80
	Linear fluid (dielectric constant: 78.4, screening length: 5.74355 Bohr) occupying 0.988945 of unit cell:	Completed after 0 iterations at t[s]:     85.43
ElecMinimize: Iter:  11  Etot: -16.810606032237995  |grad|_K:  3.059e-07  alpha:  7.647e-01  linmin: -2.081e-05  t[s]:     86.32
	Linear fluid (dielectric constant: 78.4, screening length: 5.74355 Bohr) occupying 0.988945 of unit cell:	Completed after 0 iterations at t[s]:     87.09
	Linear fluid (dielectric constant: 78.4, screening length: 5.74355 Bohr) occupying 0.988945 of unit cell:	Completed after 0 iterations at t[s]:     88.72
ElecMinimize: Iter:  12  Etot: -16.810606036959584  |grad|_K:  1.515e-07  alpha:  8.781e-01  linmin:  4.391e-05  t[s]:     89.62
	Linear fluid (dielectric constant: 78.4, screening length: 5.74355 Bohr) occupying 0.988945 of unit cell:	Completed after 0 iterations at t[s]:     90.40
	Linear fluid (dielectric constant: 78.4, screening length: 5.74355 Bohr) occupying 0.988945 of unit cell:	Completed after 0 iterations at t[s]:     92.00
ElecMinimize: Iter:  13  Etot: -16.810606038216562  |grad|_K:  8.753e-08  alpha:  9.527e-01  linmin: -1.947e-06  t[s]:     92.90
ElecMinimize: Converged (|Delta Etot|<1.000000e-08 for 2 iters).
Setting wave functions to eigenvectors of Hamiltonian
Single-point solvation energy estimate, DeltaEtot = -0.121824925317014

# Ionic positions in cartesian coordinates:
ion O   0.000000000000000   0.000000000000000   0.000000000000000 0
ion H   0.000000000000000   0.000000000000000   1.840000000000000 1


# Forces in Cartesian coordinates:
force O   0.000000000000000   0.000000000000000  -0.005808714136708 0
force H   0.000000000000000   0.000000000000000   0.006028818771340 1

# Energy components:
   A_diel =       -0.1397463458534176
   Eewald =        0.9453278232194893
       EH =       17.8119564792444152
     Eloc =      -41.5564828562524440
      Enl =        2.2592847447256856
      Exc =       -4.2309284846106694
 Exc_core =        0.0650489777314032
       KE =        8.0351908608373570
  MuShift =       -0.0002572372583847
-------------------------------------
     Etot =      -16.8106060382165623

IonicMinimize: Iter:   0  Etot: -16.810606038216562  |grad|_K:  3.481e-03  t[s]:     94.06

#--- Lowdin population analysis ---
# oxidation-state O -1.250
# oxidation-state H +0.409

	Linear fluid (dielectric constant: 78.4, screening length: 5.74355 Bohr) occupying 0.988933 of unit cell:	Completed after 5 iterations at t[s]:     96.10

-------- Electronic minimization -----------
	Linear fluid (dielectric constant: 78.4, screening length: 5.74355 Bohr) occupying 0.988933 of unit cell:	Completed after 0 iterations at t[s]:     97.71
ElecMinimize: Iter:   0  Etot: -16.810627535036215  |grad|_K:  1.129e-05  alpha:  1.000e+00
	Linear fluid (dielectric constant: 78.4, screening length: 5.74355 Bohr) occupying 0.988929 of unit cell:	Completed after 6 iterations at t[s]:    100.79
	Linear fluid (dielectric constant: 78.4, screening length: 5.74355 Bohr) occupying 0.988931 of unit cell:	Completed after 3 iterations at t[s]:    103.19
ElecMinimize: Iter:   1  Etot: -16.810631724326917  |grad|_K:  3.815e-06  alpha:  5.710e-01  linmin:  1.128e-02  t[s]:    104.09
	Linear fluid (dielectric constant: 78.4, screening length: 5.74355 Bohr) occupying 0.988932 of unit cell:	Completed after 3 iterations at t[s]:    105.66
	Linear fluid (dielectric constant: 78.4, screening length: 5.74355 Bohr) occupying 0.988932 of unit cell:	Completed after 0 iterations at t[s]:    107.29
ElecMinimize: Iter:   2  Etot: -16.810632259752456  |grad|_K:  2.311e-06  alpha:  6.376e-01  linmin: -6.478e-02  t[s]:    108.19
	Linear fluid (dielectric constant: 78.4, screening length: 5.74355 Bohr) occupying 0.988933 of unit cell:	Completed after 2 iterations at t[s]:    109.57
	Linear fluid (dielectric constant: 78.4, screening length: 5.74355 Bohr) occupying 0.988933 of unit cell:	Completed after 0 iterations at t[s]:    111.18
ElecMinimize: Iter:   3  Etot: -16.810632572230116  |grad|_K:  1.279e-06  alpha:  9.347e-01  linmin: -7.928e-02  t[s]:    112.08
	Linear fluid (dielectric constant: 78.4, screening length: 5.74355 Bohr) occupying 0.988933 of unit cell:	Completed after 2 iterations at t[s]:    113.45
	Linear fluid (dielectric constant: 78.4, screening length: 5.74355 Bohr) occupying 0.988933 of unit cell:	Completed after 0 iterations at t[s]:    115.06
ElecMinimize: Iter:   4  Etot: -16.810632629461214  |grad|_K:  1.090e-06  alpha:  6.349e-01  linmin: -2.976e-02  t[s]:    115.96
	Linear fluid (dielectric constant: 78.4, screening length: 5.74355 Bohr) occupying 0.988933 of unit cell:	Completed after 1 iterations at t[s]:    117.14
	Linear fluid (dielectric constant: 78.4, screening length: 5.74355 Bohr) occupying 0.988933 of unit cell:	Completed after 0 iterations at t[s]:    118.75
ElecMinimize: Iter:   5  Etot: -16.810632656595232  |grad|_K:  6.217e-07  alpha:  4.199e-01  linmin: -1.691e-02  t[s]:    119.64
	Linear fluid (dielectric constant: 78.4, screening length: 5.74355 Bohr) occupying 0.988933 of unit cell:	Completed after 0 iterations at t[s]:    120.42
	Linear fluid (dielectric constant: 78.4, screening length: 5.74355 Bohr) occupying 0.988933 of unit cell:	Completed after 0 iterations at t[s]:    122.04
ElecMinimize: Iter:   6  Etot: -16.810632674002537  |grad|_K:  3.288e-07  alpha:  7.645e-01  linmin: -2.019e-05  t[s]:    122.94
	Linear fluid (dielectric constant: 78.4, screening length: 5.74355 Bohr) occupying 0.988933 of unit cell:	Completed after 0 iterations at t[s]:    123.71
	Linear fluid (dielectric constant: 78.4, screening length: 5.74355 Bohr) occupying 0.988933 of unit cell:	Completed after 0 iterations at t[s]:    125.33
ElecMinimize: Iter:   7  Etot: -16.810632678247348  |grad|_K:  1.857e-07  alpha:  6.836e-01  linmin: -2.431e-06  t[s]:    126.23
	Linear fluid (dielectric constant: 78.4, screening length: 5.74355 Bohr) occupying 0.988933 of unit cell:	Completed after 0 iterations at t[s]:    127.01
	Linear fluid (dielectric constant: 78.4, screening length: 5.74355 Bohr) occupying 0.988933 of unit cell:	Completed after 0 iterations at t[s]:    128.63
ElecMinimize: Iter:   8  Etot: -16.810632679985861  |grad|_K:  1.219e-07  alpha:  8.774e-01  linmin:  7.422e-05  t[s]:    129.54
ElecMinimize: Converged (|Delta Etot|<1.000000e-08 for 2 iters).
Setting wave functions to eigenvectors of Hamiltonian

# Ionic positions in cartesian coordinates:
ion O   0.000000000000000   0.000000000000000   0.000000000000000 0
ion H   0.000000000000000   0.000000000000000   1.846028818771340 1


# Forces in Cartesian coordinates:
force O   0.000000000000000   0.000000000000000  -0.002795256527389 0
force H   0.000000000000000   0.000000000000000   0.002804704852704 1

# Energy components:
   A_diel =       -0.1397776554528895
   Eewald =        0.9346888319568757
       EH =       17.8034537558332779
     Eloc =      -41.5349426941552835
      Enl =        2.2588558517765689
      Exc =       -4.2295261295190638
 Exc_core =        0.0650489777314032
       KE =        8.0318236191016332
  MuShift =       -0.0002572372583847
-------------------------------------
     Etot =      -16.8106326799858614

IonicMinimize: Iter:   1  Etot: -16.810632679985861  |grad|_K:  1.619e-03  alpha:  1.000e+00  linmin: -7.083e-01  t[s]:    130.69

#--- Lowdin population analysis ---
# oxidation-state O -1.249
# oxidation-state H +0.408

	Linear fluid (dielectric constant: 78.4, screening length: 5.74355 Bohr) occupying 0.988923 of unit cell:	Completed after 5 iterations at t[s]:    132.75

-------- Electronic minimization -----------
	Linear fluid (dielectric constant: 78.4, screening length: 5.74355 Bohr) occupying 0.988923 of unit cell:	Completed after 0 iterations at t[s]:    134.36
ElecMinimize: Iter:   0  Etot: -16.810636134478596  |grad|_K:  9.992e-06  alpha:  1.000e+00
	Linear fluid (dielectric constant: 78.4, screening length: 5.74355 Bohr) occupying 0.988919 of unit cell:	Completed after 6 iterations at t[s]:    137.44
	Linear fluid (dielectric constant: 78.4, screening length: 5.74355 Bohr) occupying 0.988921 of unit cell:	Completed after 3 iterations at t[s]:    139.84
ElecMinimize: Iter:   1  Etot: -16.810639395036553  |grad|_K:  3.374e-06  alpha:  5.667e-01  linmin:  1.208e-02  t[s]:    140.74
	Linear fluid (dielectric constant: 78.4, screening length: 5.74355 Bohr) occupying 0.988922 of unit cell:	Completed after 3 iterations at t[s]:    142.32
	Linear fluid (dielectric constant: 78.4, screening length: 5.74355 Bohr) occupying 0.988922 of unit cell:	Completed after 0 iterations at t[s]:    143.93
ElecMinimize: Iter:   2  Etot: -16.810639800490343  |grad|_K:  2.003e-06  alpha:  6.189e-01  linmin: -6.214e-02  t[s]:    144.83
	Linear fluid (dielectric constant: 78.4, screening length: 5.74355 Bohr) occupying 0.988922 of unit cell:	Completed after 1 iterations at t[s]:    146.01
	Linear fluid (dielectric constant: 78.4, screening length: 5.74355 Bohr) occupying 0.988923 of unit cell:	Completed after 2 iterations at t[s]:    148.22
ElecMinimize: Iter:   3  Etot: -16.810640026702000  |grad|_K:  1.228e-06  alpha:  1.009e+00  linmin:  6.028e-02  t[s]:    149.12
	Linear fluid (dielectric constant: 78.4, screening length: 5.74355 Bohr) occupying 0.988923 of unit cell:	Completed after 0 iterations at t[s]:    149.89
	Linear fluid (dielectric constant: 78.4, screening length: 5.74355 Bohr) occupying 0.988923 of unit cell:	Completed after 0 iterations at t[s]:    151.51
ElecMinimize: Iter:   4  Etot: -16.810640092157524  |grad|_K:  6.218e-07  alpha:  8.159e-01  linmin: -2.062e-06  t[s]:    152.41
	Linear fluid (dielectric constant: 78.4, screening length: 5.74355 Bohr) occupying 0.988922 of unit cell:	Completed after 0 iterations at t[s]:    153.18
	Linear fluid (dielectric constant: 78.4, screening length: 5.74355 Bohr) occupying 0.988922 of unit cell:	Completed after 0 iterations at t[s]:    154.79
ElecMinimize: Iter:   5  Etot: -16.810640112370216  |grad|_K:  3.404e-07  alpha:  9.098e-01  linmin: -1.857e-06  t[s]:    155.69
	Linear fluid (dielectric constant: 78.4, screening length: 5.74355 Bohr) occupying 0.988922 of unit cell:	Completed after 0 iterations at t[s]:    156.46
	Linear fluid (dielectric constant: 78.4, screening length: 5.74355 Bohr) occupying 0.988922 of unit cell:	Completed after 0 iterations at t[s]:    158.08
ElecMinimize: Iter:   6  Etot: -16.810640117700817  |grad|_K:  1.715e-07  alpha:  8.008e-01  linmin: -5.447e-05  t[s]:    159.00
	Linear fluid (dielectric constant: 78.4, screening length: 5.74355 Bohr) occupying 0.988922 of unit cell:	Completed after 0 iterations at t[s]:    159.78
	Linear fluid (dielectric constant: 78.4, screening length: 5.74355 Bohr) occupying 0.988922 of unit cell:	Completed after 0 iterations at t[s]:    161.40
ElecMinimize: Iter:   7  Etot: -16.810640119285253  |grad|_K:  9.067e-08  alpha:  9.371e-01  linmin: -2.068e-04  t[s]:    162.30
ElecMinimize: Converged (|Delta Etot|<1.000000e-08 for 2 iters).
Setting wave functions to eigenvectors of Hamiltonian

# Ionic positions in cartesian coordinates:
ion O   0.000000000000000   0.000000000000000   0.000000000000000 0
ion H   0.000000000000000   0.000000000000000   1.851273378266064 1


# Forces in Cartesian coordinates:
force O   0.000000000000000   0.000000000000000   0.000184662911341 0
force H   0.000000000000000   0.000000000000000   0.000011888535616 1

# Energy components:
   A_diel =       -0.1397967160031468
   Eewald =        0.9254902570793687
       EH =       17.7954149834137816
     Eloc =      -41.5152985138576440
      Enl =        2.2583849402394618
      Exc =       -4.2281897478661836
 Exc_core =        0.0650489777314032
       KE =        8.0285629372360887
  MuShift =       -0.0002572372583847
-------------------------------------
     Etot =      -16.8106401192852530

IonicMinimize: Iter:   2  Etot: -16.810640119285253  |grad|_K:  6.864e-06  alpha:  1.000e+00  linmin: -6.425e-02  t[s]:    163.47
IonicMinimize: Converged (|grad|_K<1.000000e-04).

#--- Lowdin population analysis ---
# oxidation-state O -1.248
# oxidation-state H +0.407


Dumping 'OH-.wfns' ... done
Dumping 'OH-.fluidState' ... done
Dumping 'OH-.ionpos' ... done
Dumping 'OH-.nbound' ... done
End date and time: Sun Mar  3 23:33:49 2019  (Duration: 0-0:02:43.56)
Done!
