
*************** JDFTx 1.4.2  ***************

Start date and time: Sun Mar  3 19:27:27 2019
Executable jdftx with command-line: -i water.in
Running on hosts (process indices):  Juans-MBP.lan1 (0)
Divided in process groups (process indices):  0 (0)
Resource initialization completed at t[s]:      0.00
Run totals: 1 processes, 12 threads, 0 GPUs


Input parsed successfully to the following command list (including defaults):

basis kpoint-dependent
coords-type Cartesian
core-overlap-check vector
coulomb-interaction Periodic
davidson-band-ratio 1.1
dump End None
dump-name $INPUT.$VAR
elec-cutoff 20 100
elec-eigen-algo Davidson
elec-ex-corr gga-PBE
electronic-minimize  \
	dirUpdateScheme      FletcherReeves \
	linminMethod         DirUpdateRecommended \
	nIterations          100 \
	history              15 \
	knormThreshold       0 \
	energyDiffThreshold  1e-08 \
	nEnergyDiff          2 \
	alphaTstart          1 \
	alphaTmin            1e-10 \
	updateTestStepSize   yes \
	alphaTreduceFactor   0.1 \
	alphaTincreaseFactor 3 \
	nAlphaAdjustMax      3 \
	wolfeEnergy          0.0001 \
	wolfeGradient        0.9 \
	fdTest               no
exchange-regularization WignerSeitzTruncated
fluid None
fluid-ex-corr lda-TF lda-PZ
fluid-gummel-loop 10 1.000000e-05
fluid-minimize  \
	dirUpdateScheme      PolakRibiere \
	linminMethod         DirUpdateRecommended \
	nIterations          100 \
	history              15 \
	knormThreshold       0 \
	energyDiffThreshold  0 \
	nEnergyDiff          2 \
	alphaTstart          1 \
	alphaTmin            1e-10 \
	updateTestStepSize   yes \
	alphaTreduceFactor   0.1 \
	alphaTincreaseFactor 3 \
	nAlphaAdjustMax      3 \
	wolfeEnergy          0.0001 \
	wolfeGradient        0.9 \
	fdTest               no
fluid-solvent H2O 55.338 ScalarEOS \
	epsBulk 78.4 \
	pMol 0.92466 \
	epsInf 1.77 \
	Pvap 1.06736e-10 \
	sigmaBulk 4.62e-05 \
	Rvdw 2.61727 \
	Res 1.42
forces-output-coords Positions
ion O   0.000000000000000   0.000000000000000   0.600540000000000 0
ion H   0.000000000000000   1.432390000000000  -0.600540000000000 1
ion H   0.000000000000000  -1.432390000000000  -0.600540000000000 1
ion-species GBRV/$ID_pbe.uspp
ion-width 0
ionic-minimize  \
	dirUpdateScheme      L-BFGS \
	linminMethod         DirUpdateRecommended \
	nIterations          0 \
	history              15 \
	knormThreshold       0.0001 \
	energyDiffThreshold  1e-06 \
	nEnergyDiff          2 \
	alphaTstart          1 \
	alphaTmin            1e-10 \
	updateTestStepSize   yes \
	alphaTreduceFactor   0.1 \
	alphaTincreaseFactor 3 \
	nAlphaAdjustMax      3 \
	wolfeEnergy          0.0001 \
	wolfeGradient        0.9 \
	fdTest               no
kpoint   0.000000000000   0.000000000000   0.000000000000  1.00000000000000
kpoint-folding 1 1 1 
latt-move-scale 1 1 1
latt-scale 1 1 1 
lattice  \
	  20.000000000000000    0.000000000000000    0.000000000000000  \
	   0.000000000000000   22.864799999999999    0.000000000000000  \
	   0.000000000000000    0.000000000000000   21.201100000000000 
lattice-minimize  \
	dirUpdateScheme      L-BFGS \
	linminMethod         DirUpdateRecommended \
	nIterations          0 \
	history              15 \
	knormThreshold       0 \
	energyDiffThreshold  1e-06 \
	nEnergyDiff          2 \
	alphaTstart          1 \
	alphaTmin            1e-10 \
	updateTestStepSize   yes \
	alphaTreduceFactor   0.1 \
	alphaTincreaseFactor 3 \
	nAlphaAdjustMax      3 \
	wolfeEnergy          0.0001 \
	wolfeGradient        0.9 \
	fdTest               no
lcao-params -1 1e-06 0.001
pcm-variant GLSSA13
spintype no-spin
subspace-rotation-factor 1 yes
symmetries automatic
symmetry-threshold 0.0001



---------- Setting up symmetries ----------

Found 8 point-group symmetries of the bravais lattice
Found 4 space-group symmetries with basis
Applied RMS atom displacement 0 bohrs to make symmetries exact.

---------- Initializing the Grid ----------
R = 
[         20          0          0  ]
[          0    22.8648          0  ]
[          0          0    21.2011  ]
unit cell volume = 9695.18
G =
[   0.314159          0          0  ]
[          0   0.274797          0  ]
[          0          0   0.296361  ]
Minimum fftbox size, Smin = [  92  104  96  ]
Chosen fftbox size, S = [  96  108  96  ]

---------- Initializing tighter grid for wavefunction operations ----------
R = 
[         20          0          0  ]
[          0    22.8648          0  ]
[          0          0    21.2011  ]
unit cell volume = 9695.18
G =
[   0.314159          0          0  ]
[          0   0.274797          0  ]
[          0          0   0.296361  ]
Minimum fftbox size, Smin = [  84  96  88  ]
Chosen fftbox size, S = [  84  96  90  ]

---------- Exchange Correlation functional ----------
Initalized PBE GGA exchange.
Initalized PBE GGA correlation.

---------- Setting up pseudopotentials ----------
Width of ionic core gaussian charges (only for fluid interactions / plotting) set to 0

Reading pseudopotential file '/Users/juanmendezvalderrama/Documents/JDFTX/build/pseudopotentials/GBRV/o_pbe.uspp':
  Title: O.  Created by USPP 7.3.6 on 3-2-2014
  Reference state energy: -15.894388.  6 valence electrons in orbitals:
    |200>  occupation: 2  eigenvalue: -0.878823
    |210>  occupation: 4  eigenvalue: -0.332131
  lMax: 2  lLocal: 2  QijEcut: 6
  5 projectors sampled on a log grid with 511 points:
    l: 0  eig: -0.878823  rCut: 1.25
    l: 0  eig: 0.000000  rCut: 1.25
    l: 1  eig: -0.332132  rCut: 1.25
    l: 1  eig: 0.000000  rCut: 1.25
    l: 2  eig: 1.000000  rCut: 1.25
  Partial core density with radius 0.7
  Transforming core density to a uniform radial grid of dG=0.02 with 1280 points.
  Transforming local potential to a uniform radial grid of dG=0.02 with 1280 points.
  Transforming nonlocal projectors to a uniform radial grid of dG=0.02 with 432 points.
  Transforming density augmentations to a uniform radial grid of dG=0.02 with 1280 points.
  Transforming atomic orbitals to a uniform radial grid of dG=0.02 with 432 points.
  Core radius for overlap checks: 1.25 bohrs.

Reading pseudopotential file '/Users/juanmendezvalderrama/Documents/JDFTX/build/pseudopotentials/GBRV/h_pbe.uspp':
  Title: H.  Created by USPP 7.3.6 on 2-4-15
  Reference state energy: -0.458849.  1 valence electrons in orbitals:
    |100>  occupation: 1  eigenvalue: -0.238595
  lMax: 0  lLocal: 1  QijEcut: 6
  2 projectors sampled on a log grid with 395 points:
    l: 0  eig: -0.238595  rCut: 1.2
    l: 0  eig: 1.000000  rCut: 1.2
  Transforming local potential to a uniform radial grid of dG=0.02 with 1280 points.
  Transforming nonlocal projectors to a uniform radial grid of dG=0.02 with 432 points.
  Transforming density augmentations to a uniform radial grid of dG=0.02 with 1280 points.
  Transforming atomic orbitals to a uniform radial grid of dG=0.02 with 432 points.
  Core radius for overlap checks: 1.20 bohrs.

Initialized 2 species with 3 total atoms.

Folded 1 k-points by 1x1x1 to 1 k-points.

---------- Setting up k-points, bands, fillings ----------
No reducable k-points. 
Computing the number of bands and number of electrons
Calculating initial fillings.
nElectrons:   8.000000   nBands: 4   nStates: 1

----- Setting up reduced wavefunction bases (one per k-point) -----
average nbasis = 41405.000 , ideal nbasis = 41418.540

---------- Setting up ewald sum ----------
Optimum gaussian width for ewald sums = 7.083400 bohr.
Real space sum over 1089 unit cells with max indices [  5  4  5  ]
Reciprocal space sum over 2197 terms with max indices [  6  6  6  ]

---------- Allocating electronic variables ----------
Initializing wave functions:  linear combination of atomic orbitals
O pseudo-atom occupations:   s ( 2 )  p ( 4 )
H pseudo-atom occupations:   s ( 1 )
	FillingsUpdate:  mu: -0.000000000  nElectrons: 8.000000
LCAOMinimize: Iter:   0  Etot: -17.0507441726626645  |grad|_K:  7.470e-02  alpha:  1.000e+00
	FillingsUpdate:  mu: -0.000000000  nElectrons: 8.000000
LCAOMinimize: Iter:   1  Etot: -17.1225799159219392  |grad|_K:  6.869e-03  alpha:  4.510e-01  linmin: -4.843e-01  cgtest:  7.604e-01  t[s]:      6.56
LCAOMinimize: Encountered beta<0, resetting CG.
	FillingsUpdate:  mu: -0.000000000  nElectrons: 8.000000
LCAOMinimize: Iter:   2  Etot: -17.1232364071583163  |grad|_K:  2.026e-03  alpha:  5.734e-01  linmin:  4.394e-02  cgtest: -1.439e-01  t[s]:      7.45
	FillingsUpdate:  mu: -0.000000000  nElectrons: 8.000000
LCAOMinimize: Iter:   3  Etot: -17.1233038461339255  |grad|_K:  4.511e-04  alpha:  7.046e-01  linmin:  4.045e-04  cgtest:  4.431e-01  t[s]:      8.33
LCAOMinimize: Encountered beta<0, resetting CG.
LCAOMinimize: None of the convergence criteria satisfied after 3 iterations.


---- Citations for features of the code used in this run ----

   Software package:
      R. Sundararaman, K. Letchworth-Weaver, K.A. Schwarz, D. Gunceler, Y. Ozhabes and T.A. Arias, 'JDFTx: software for joint density-functional theory', SoftwareX 6, 278 (2017)

   gga-PBE exchange-correlation functional:
      J.P. Perdew, K. Burke and M. Ernzerhof, Phys. Rev. Lett. 77, 3865 (1996)

   Pseudopotentials:
      KF Garrity, JW Bennett, KM Rabe and D Vanderbilt, Comput. Mater. Sci. 81, 446 (2014)

   Total energy minimization:
      T.A. Arias, M.C. Payne and J.D. Joannopoulos, Phys. Rev. Lett. 69, 1077 (1992)

This list may not be complete. Please suggest additional citations or
report any other bugs at https://github.com/shankar1729/jdftx/issues

Initialization completed successfully at t[s]:      8.35


-------- Electronic minimization -----------
ElecMinimize: Iter:   0  Etot: -17.123303846133908  |grad|_K:  1.100e-03  alpha:  1.000e+00
ElecMinimize: Iter:   1  Etot: -17.242310718608604  |grad|_K:  3.784e-04  alpha:  5.911e-01  linmin: -1.525e-02  t[s]:     10.09
ElecMinimize: Iter:   2  Etot: -17.259309057340353  |grad|_K:  2.315e-04  alpha:  7.104e-01  linmin: -7.402e-03  t[s]:     10.95
ElecMinimize: Iter:   3  Etot: -17.265481951867308  |grad|_K:  1.222e-04  alpha:  6.904e-01  linmin:  3.658e-03  t[s]:     11.81
ElecMinimize: Iter:   4  Etot: -17.267327142286231  |grad|_K:  5.761e-05  alpha:  7.486e-01  linmin: -2.292e-03  t[s]:     12.67
ElecMinimize: Iter:   5  Etot: -17.267811770328301  |grad|_K:  3.099e-05  alpha:  8.806e-01  linmin:  3.040e-03  t[s]:     13.53
ElecMinimize: Iter:   6  Etot: -17.267943007038028  |grad|_K:  1.854e-05  alpha:  8.274e-01  linmin: -6.806e-04  t[s]:     14.37
ElecMinimize: Iter:   7  Etot: -17.267986995172500  |grad|_K:  1.062e-05  alpha:  7.724e-01  linmin:  3.739e-04  t[s]:     15.21
ElecMinimize: Iter:   8  Etot: -17.268000192689836  |grad|_K:  5.568e-06  alpha:  7.063e-01  linmin: -2.657e-04  t[s]:     16.05
ElecMinimize: Iter:   9  Etot: -17.268003760694192  |grad|_K:  2.838e-06  alpha:  6.948e-01  linmin:  8.923e-05  t[s]:     16.88
ElecMinimize: Iter:  10  Etot: -17.268004779993085  |grad|_K:  1.321e-06  alpha:  7.640e-01  linmin: -1.475e-04  t[s]:     17.71
ElecMinimize: Iter:  11  Etot: -17.268005008647336  |grad|_K:  6.316e-07  alpha:  7.911e-01  linmin:  1.336e-07  t[s]:     18.55
ElecMinimize: Iter:  12  Etot: -17.268005057482430  |grad|_K:  3.325e-07  alpha:  7.392e-01  linmin: -1.872e-05  t[s]:     19.39
ElecMinimize: Iter:  13  Etot: -17.268005070675862  |grad|_K:  1.946e-07  alpha:  7.207e-01  linmin: -1.196e-06  t[s]:     20.23
ElecMinimize: Iter:  14  Etot: -17.268005075173544  |grad|_K:  1.055e-07  alpha:  7.175e-01  linmin:  5.388e-05  t[s]:     21.06
ElecMinimize: Iter:  15  Etot: -17.268005076654006  |grad|_K:  5.234e-08  alpha:  8.027e-01  linmin: -1.238e-04  t[s]:     21.89
ElecMinimize: Converged (|Delta Etot|<1.000000e-08 for 2 iters).
Setting wave functions to eigenvectors of Hamiltonian

# Ionic positions in cartesian coordinates:
ion O   0.000000000000000   0.000000000000000   0.600540000000000 0
ion H   0.000000000000000   1.432390000000000  -0.600540000000000 1
ion H   0.000000000000000  -1.432390000000000  -0.600540000000000 1


# Forces in Cartesian coordinates:
force O   0.000000000000000   0.000000000000000  -0.016345528794455 0
force H   0.000000000000000  -0.002443099125711   0.008169647006498 1
force H   0.000000000000000   0.002443099125711   0.008169647006498 1

# Energy components:
   Eewald =        2.5388596757958308
       EH =       17.0340858946122822
     Eloc =      -43.1082375090310848
      Enl =        2.2206928022520529
      Exc =       -4.3306833360184793
 Exc_core =        0.0650495287308640
       KE =        8.3122278670045251
-------------------------------------
     Etot =      -17.2680050766540063

IonicMinimize: Iter:   0  Etot: -17.268005076654006  |grad|_K:  4.923e-03  t[s]:     22.41
IonicMinimize: None of the convergence criteria satisfied after 0 iterations.

#--- Lowdin population analysis ---
# oxidation-state O -0.726
# oxidation-state H +0.420 +0.420

End date and time: Sun Mar  3 19:27:50 2019  (Duration: 0-0:00:22.42)
Done!
