--------------------------------------------------------------------------
Initialization of PSM library failed.

  Error: PSM is in the finalized state
--------------------------------------------------------------------------
[node2003][[23285,1],0][btl_openib.c:880:mca_btl_openib_add_procs] --------------------------------------------------------------------------
The OpenFabrics (openib) BTL failed to initialize while trying to
allocate some locked memory.  This typically can indicate that the
memlock limits are set too low.  For most HPC installations, the
memlock limits should be set to "unlimited".  The failure occured
here:

  Local host:    node2003
  OMPI source:   btl_openib.c:753
  Function:      ompi_free_list_init_ex_new()
  Device:        qib0
  Memlock limit: 65536

You may need to consult with your system administrator to get this
problem fixed.  This FAQ entry on the Open MPI web site may also be
helpful:

    http://www.open-mpi.org/faq/?category=openfabrics#ib-locked-pages
--------------------------------------------------------------------------
could not prepare openib device for use

*************** JDFTx 1.4.2 (git hash 74b6e54) ***************

Start date and time: Mon Mar 11 08:11:39 2019
Executable jdftx with command-line: -i totalE.in
Running on hosts (process indices):  node2003.physics.cornell.edu (0)
Divided in process groups (process indices):  0 (0)
Resource initialization completed at t[s]:      0.00
Run totals: 1 processes, 12 threads, 0 GPUs


Input parsed successfully to the following command list (including defaults):

basis kpoint-dependent
coords-type Lattice
core-overlap-check vector
coulomb-interaction Slab 001
coulomb-truncation-embed 0 0 0
davidson-band-ratio 1.1
dump End ElecDensity
dump-name totalE.$VAR
elec-cutoff 20 100
elec-eigen-algo Davidson
elec-ex-corr gga-PBE
elec-smearing Fermi 0.01
electronic-minimize  \
	dirUpdateScheme      FletcherReeves \
	linminMethod         DirUpdateRecommended \
	nIterations          100 \
	history              15 \
	knormThreshold       0 \
	energyDiffThreshold  1e-08 \
	nEnergyDiff          2 \
	alphaTstart          1 \
	alphaTmin            1e-10 \
	updateTestStepSize   yes \
	alphaTreduceFactor   0.1 \
	alphaTincreaseFactor 3 \
	nAlphaAdjustMax      3 \
	wolfeEnergy          0.0001 \
	wolfeGradient        0.9 \
	fdTest               no
exchange-regularization WignerSeitzTruncated
fluid None
fluid-ex-corr lda-TF lda-PZ
fluid-gummel-loop 10 1.000000e-05
fluid-minimize  \
	dirUpdateScheme      PolakRibiere \
	linminMethod         DirUpdateRecommended \
	nIterations          100 \
	history              15 \
	knormThreshold       0 \
	energyDiffThreshold  0 \
	nEnergyDiff          2 \
	alphaTstart          1 \
	alphaTmin            1e-10 \
	updateTestStepSize   yes \
	alphaTreduceFactor   0.1 \
	alphaTincreaseFactor 3 \
	nAlphaAdjustMax      3 \
	wolfeEnergy          0.0001 \
	wolfeGradient        0.9 \
	fdTest               no
fluid-solvent H2O 55.338 ScalarEOS \
	epsBulk 78.4 \
	pMol 0.92466 \
	epsInf 1.77 \
	Pvap 1.06736e-10 \
	sigmaBulk 4.62e-05 \
	Rvdw 2.61727 \
	Res 1.42 \
	tauNuc 343133 \
	omegaEl 0.55124 \
	gammaEl 0.257245
forces-output-coords Positions
ion C   0.000000000000000   0.000000000000000   0.000000000000000 0
ion C   0.333333000000000  -0.333333000000000   0.000000000000000 0
ion-species GBRV/$ID_pbe.uspp
ion-width 0
ionic-minimize  \
	dirUpdateScheme      L-BFGS \
	linminMethod         DirUpdateRecommended \
	nIterations          0 \
	history              15 \
	knormThreshold       0.0001 \
	energyDiffThreshold  1e-06 \
	nEnergyDiff          2 \
	alphaTstart          1 \
	alphaTmin            1e-10 \
	updateTestStepSize   yes \
	alphaTreduceFactor   0.1 \
	alphaTincreaseFactor 3 \
	nAlphaAdjustMax      3 \
	wolfeEnergy          0.0001 \
	wolfeGradient        0.9 \
	fdTest               no
kpoint   0.000000000000   0.000000000000   0.000000000000  1.00000000000000
kpoint-folding 12 12 1 
latt-move-scale 1 1 1
latt-scale 1 1 1 
lattice Hexagonal 4.651 15
lattice-minimize  \
	dirUpdateScheme      L-BFGS \
	linminMethod         DirUpdateRecommended \
	nIterations          0 \
	history              15 \
	knormThreshold       0 \
	energyDiffThreshold  1e-06 \
	nEnergyDiff          2 \
	alphaTstart          1 \
	alphaTmin            1e-10 \
	updateTestStepSize   yes \
	alphaTreduceFactor   0.1 \
	alphaTincreaseFactor 3 \
	nAlphaAdjustMax      3 \
	wolfeEnergy          0.0001 \
	wolfeGradient        0.9 \
	fdTest               no
lcao-params -1 1e-06 0.01
pcm-variant GLSSA13
spintype no-spin
subspace-rotation-factor 1 yes
symmetries automatic
symmetry-threshold 0.0001



---------- Setting up symmetries ----------

Found 24 point-group symmetries of the bravais lattice
Found 24 space-group symmetries with basis
Applied RMS atom displacement 1.34263e-06 bohrs to make symmetries exact.

---------- Initializing the Grid ----------
R = 
[      4.651    -2.3255          0  ]
[          0    4.02788          0  ]
[          0          0         15  ]
unit cell volume = 281.005
G =
[    1.35093   0.779961         -0  ]
[          0    1.55992          0  ]
[          0         -0   0.418879  ]
Minimum fftbox size, Smin = [  24  24  68  ]
Chosen fftbox size, S = [  24  24  70  ]

---------- Initializing tighter grid for wavefunction operations ----------
R = 
[      4.651    -2.3255          0  ]
[          0    4.02788          0  ]
[          0          0         15  ]
unit cell volume = 281.005
G =
[    1.35093   0.779961         -0  ]
[          0    1.55992          0  ]
[          0         -0   0.418879  ]
Minimum fftbox size, Smin = [  20  20  64  ]
Chosen fftbox size, S = [  20  20  64  ]

---------- Exchange Correlation functional ----------
Initalized PBE GGA exchange.
Initalized PBE GGA correlation.

---------- Setting up pseudopotentials ----------
Width of ionic core gaussian charges (only for fluid interactions / plotting) set to 0

Reading pseudopotential file '/home/jfm343/JDFTXDIR/build/pseudopotentials/GBRV/c_pbe.uspp':
  Title: C.  Created by USPP 7.3.6 on 3-2-2014
  Reference state energy: -5.406344.  4 valence electrons in orbitals:
    |200>  occupation: 2  eigenvalue: -0.504890
    |210>  occupation: 2  eigenvalue: -0.194356
  lMax: 1  lLocal: 2  QijEcut: 5
  4 projectors sampled on a log grid with 503 points:
    l: 0  eig: -0.504890  rCut: 1.3
    l: 0  eig: 0.000000  rCut: 1.3
    l: 1  eig: -0.194357  rCut: 1.3
    l: 1  eig: 0.000000  rCut: 1.3
  Partial core density with radius 1.1
  Transforming core density to a uniform radial grid of dG=0.02 with 1785 points.
  Transforming local potential to a uniform radial grid of dG=0.02 with 1785 points.
  Transforming nonlocal projectors to a uniform radial grid of dG=0.02 with 432 points.
  Transforming density augmentations to a uniform radial grid of dG=0.02 with 1785 points.
  Transforming atomic orbitals to a uniform radial grid of dG=0.02 with 432 points.
  Core radius for overlap checks: 1.30 bohrs.

Initialized 1 species with 2 total atoms.

Folded 1 k-points by 12x12x1 to 144 k-points.

---------- Setting up k-points, bands, fillings ----------
Reduced to 19 k-points under symmetry. 
Computing the number of bands and number of electrons
Calculating initial fillings.
nElectrons:   8.000000   nBands: 8   nStates: 19

----- Setting up reduced wavefunction bases (one per k-point) -----
average nbasis = 1200.632 , ideal nbasis = 1200.476

---------- Setting up coulomb interaction ----------
Setting up double-sized grid for truncated Coulomb potentials:
R = 
[      4.651    -2.3255          0  ]
[          0    4.02788          0  ]
[          0          0         30  ]
unit cell volume = 562.011
G =
[    1.35093   0.779961         -0  ]
[          0    1.55992          0  ]
[          0         -0    0.20944  ]
Chosen fftbox size, S = [  24  24  140  ]
Integer grid location selected as the embedding center:
   Grid: [  0  0  0  ]
   Lattice: [  0  0  0  ]
   Cartesian: [  0  0  0  ]
Constructing Wigner-Seitz cell: 8 faces (6 quadrilaterals, 2 hexagons)
Range-separation parameter for embedded mesh potentials due to point charges: 0.583992 bohrs.
Initialized slab truncation along lattice direction 001

---------- Setting up 2D ewald sum ----------
Optimum gaussian width for ewald sums = 2.582047 bohr.
Real space sums over 289 unit cells with max indices [  8  8  0  ]
Reciprocal space sums over 81 terms with max indices [  4  4  0  ]

---------- Allocating electronic variables ----------
Initializing wave functions:  linear combination of atomic orbitals
C pseudo-atom occupations:   s ( 2 )  p ( 2 )
	FillingsUpdate:  mu: -0.303845280  nElectrons: 8.000000
LCAOMinimize: Iter:   0  F: -11.3077071471933301  |grad|_K:  9.324e-05  alpha:  1.000e+00
	FillingsUpdate:  mu: -0.303924271  nElectrons: 8.000000
LCAOMinimize: Iter:   1  F: -11.3077137196572703  |grad|_K:  9.402e-07  alpha:  9.825e-01  linmin: -7.722e-02  cgtest:  2.495e-01  t[s]:      2.58
LCAOMinimize: Encountered beta<0, resetting CG.
	FillingsUpdate:  mu: -0.303920357  nElectrons: 8.000000
LCAOMinimize: Iter:   2  F: -11.3077137203301703  |grad|_K:  1.076e-08  alpha:  9.892e-01  linmin:  7.679e-03  cgtest: -6.873e-02  t[s]:      3.21
	FillingsUpdate:  mu: -0.303920403  nElectrons: 8.000000
LCAOMinimize: Iter:   3  F: -11.3077137203302769  |grad|_K:  2.055e-08  alpha:  2.870e+00  linmin:  1.022e-01  cgtest: -9.944e-01  t[s]:      3.84
LCAOMinimize: Converged (|Delta F|<1.000000e-06 for 2 iters).


---- Citations for features of the code used in this run ----

   Software package:
      R. Sundararaman, K. Letchworth-Weaver, K.A. Schwarz, D. Gunceler, Y. Ozhabes and T.A. Arias, 'JDFTx: software for joint density-functional theory', SoftwareX 6, 278 (2017)

   gga-PBE exchange-correlation functional:
      J.P. Perdew, K. Burke and M. Ernzerhof, Phys. Rev. Lett. 77, 3865 (1996)

   Pseudopotentials:
      KF Garrity, JW Bennett, KM Rabe and D Vanderbilt, Comput. Mater. Sci. 81, 446 (2014)

   Truncated Coulomb potentials:
      R. Sundararaman and T.A. Arias, Phys. Rev. B 87, 165122 (2013)

   Total energy minimization with Auxiliary Hamiltonian:
      C. Freysoldt, S. Boeck, and J. Neugebauer, Phys. Rev. B 79, 241103(R) (2009)

This list may not be complete. Please suggest additional citations or
report any other bugs at https://github.com/shankar1729/jdftx/issues

Initialization completed successfully at t[s]:      3.92


-------- Electronic minimization -----------
	FillingsUpdate:  mu: -0.303920403  nElectrons: 8.000000
ElecMinimize: Iter:   0  F: -11.307713720330284  |grad|_K:  9.153e-04  alpha:  1.000e+00
	FillingsUpdate:  mu: -0.160234964  nElectrons: 8.000000
	SubspaceRotationAdjust: set factor to 1
ElecMinimize: Iter:   1  F: -11.415098494098492  |grad|_K:  2.216e-04  alpha:  7.104e-01  linmin: -1.404e-03  t[s]:      5.49
	FillingsUpdate:  mu: -0.158097572  nElectrons: 8.000000
	SubspaceRotationAdjust: set factor to 1.13
ElecMinimize: Iter:   2  F: -11.421847599515642  |grad|_K:  8.360e-05  alpha:  7.501e-01  linmin: -2.854e-05  t[s]:      6.38
	FillingsUpdate:  mu: -0.157485584  nElectrons: 8.000000
	SubspaceRotationAdjust: set factor to 1.13
ElecMinimize: Iter:   3  F: -11.422931105566354  |grad|_K:  3.483e-05  alpha:  8.477e-01  linmin:  2.143e-04  t[s]:      7.25
	FillingsUpdate:  mu: -0.156104709  nElectrons: 8.000000
	SubspaceRotationAdjust: set factor to 1.17
ElecMinimize: Iter:   4  F: -11.423162158833984  |grad|_K:  1.462e-05  alpha:  1.055e+00  linmin:  2.017e-04  t[s]:      8.13
	FillingsUpdate:  mu: -0.155800932  nElectrons: 8.000000
	SubspaceRotationAdjust: set factor to 1.38
ElecMinimize: Iter:   5  F: -11.423197263883059  |grad|_K:  6.386e-06  alpha:  9.034e-01  linmin:  2.403e-05  t[s]:      9.01
	FillingsUpdate:  mu: -0.155774532  nElectrons: 8.000000
	SubspaceRotationAdjust: set factor to 1.39
ElecMinimize: Iter:   6  F: -11.423203380642281  |grad|_K:  2.815e-06  alpha:  8.208e-01  linmin:  2.746e-05  t[s]:      9.90
	FillingsUpdate:  mu: -0.155780097  nElectrons: 8.000000
	SubspaceRotationAdjust: set factor to 1.38
ElecMinimize: Iter:   7  F: -11.423204815010884  |grad|_K:  1.492e-06  alpha:  9.970e-01  linmin:  3.609e-05  t[s]:     10.80
	FillingsUpdate:  mu: -0.155788187  nElectrons: 8.000000
	SubspaceRotationAdjust: set factor to 1.41
ElecMinimize: Iter:   8  F: -11.423205207332833  |grad|_K:  7.995e-07  alpha:  9.758e-01  linmin:  1.336e-05  t[s]:     11.67
	FillingsUpdate:  mu: -0.155821227  nElectrons: 8.000000
	SubspaceRotationAdjust: set factor to 1.54
ElecMinimize: Iter:   9  F: -11.423205306006411  |grad|_K:  3.462e-07  alpha:  8.507e-01  linmin:  3.611e-06  t[s]:     12.57
	FillingsUpdate:  mu: -0.155833571  nElectrons: 8.000000
	SubspaceRotationAdjust: set factor to 1.5
ElecMinimize: Iter:  10  F: -11.423205325692528  |grad|_K:  1.781e-07  alpha:  9.026e-01  linmin:  3.464e-06  t[s]:     13.45
	FillingsUpdate:  mu: -0.155826924  nElectrons: 8.000000
	SubspaceRotationAdjust: set factor to 1.49
ElecMinimize: Iter:  11  F: -11.423205331230257  |grad|_K:  9.590e-08  alpha:  9.643e-01  linmin:  2.346e-06  t[s]:     14.34
	FillingsUpdate:  mu: -0.155824413  nElectrons: 8.000000
	SubspaceRotationAdjust: set factor to 1.44
ElecMinimize: Iter:  12  F: -11.423205333282016  |grad|_K:  8.206e-08  alpha:  1.234e+00  linmin:  1.802e-06  t[s]:     15.23
ElecMinimize: Converged (|Delta F|<1.000000e-08 for 2 iters).
Setting wave functions to eigenvectors of Hamiltonian

# Ionic positions in lattice coordinates:
ion C  -0.000000166666667   0.000000166666667   0.000000000000000 0
ion C   0.333333166666667  -0.333333166666667   0.000000000000000 0


# Forces in Lattice coordinates:
force C   0.000000000000000  -0.000000000000000   0.000000000000000 0
force C  -0.000000000000000  -0.000000000000000   0.000000000000000 0

# Energy components:
   Eewald =      -19.8001027145763544
       EH =      -11.2840721909947277
     Eloc =       15.0307867374248048
      Enl =        1.6165415202200109
      Exc =       -3.6373382463007382
 Exc_core =        0.0673520407452005
       KE =        6.5842149434866535
-------------------------------------
     Etot =      -11.4226179099951537
       TS =        0.0005874232868628
-------------------------------------
        F =      -11.4232053332820165

IonicMinimize: Iter:   0  F: -11.423205333282016  |grad|_K:  0.000e+00  t[s]:     15.45
IonicMinimize: Converged (|grad|_K<1.000000e-04).

#--- Lowdin population analysis ---
# oxidation-state C +0.043 +0.043


Dumping 'totalE.n' ... done
End date and time: Mon Mar 11 08:11:54 2019  (Duration: 0-0:00:15.54)
Done!
--------------------------------------------------------------------------
Initialization of PSM library failed.

  Error: PSM is in the finalized state
--------------------------------------------------------------------------
--------------------------------------------------------------------------
The OpenFabrics (openib) BTL failed to initialize while trying to
allocate some locked memory.  This typically can indicate that the
memlock limits are set too low.  For most HPC installations, the
memlock limits should be set to "unlimited".  The failure occured
here:

  Local host:    node2003
  OMPI source:   btl_openib.c:753
  Function:      ompi_free_list_init_ex_new()
  Device:        qib0
  Memlock limit: 65536

You may need to consult with your system administrator to get this
problem fixed.  This FAQ entry on the Open MPI web site may also be
helpful:

    http://www.open-mpi.org/faq/?category=openfabrics#ib-locked-pages
--------------------------------------------------------------------------
[node2003][[399,1],0][btl_openib.c:880:mca_btl_openib_add_procs] could not prepare openib device for use

*************** JDFTx 1.4.2 (git hash 74b6e54) ***************

Start date and time: Mon Mar 11 08:11:55 2019
Executable jdftx with command-line: -i bandstruct.in
Running on hosts (process indices):  node2003.physics.cornell.edu (0)
Divided in process groups (process indices):  0 (0)
Resource initialization completed at t[s]:      0.00
Run totals: 1 processes, 12 threads, 0 GPUs


Input parsed successfully to the following command list (including defaults):

basis kpoint-dependent
coords-type Lattice
core-overlap-check vector
coulomb-interaction Slab 001
coulomb-truncation-embed 0 0 0
davidson-band-ratio 1.1
dump End BandEigs
dump-name bandstruct.$VAR
elec-cutoff 20 100
elec-eigen-algo Davidson
elec-ex-corr gga-PBE
elec-n-bands 8
electronic-minimize  \
	dirUpdateScheme      FletcherReeves \
	linminMethod         DirUpdateRecommended \
	nIterations          100 \
	history              15 \
	knormThreshold       0 \
	energyDiffThreshold  1e-08 \
	nEnergyDiff          2 \
	alphaTstart          1 \
	alphaTmin            1e-10 \
	updateTestStepSize   yes \
	alphaTreduceFactor   0.1 \
	alphaTincreaseFactor 3 \
	nAlphaAdjustMax      3 \
	wolfeEnergy          0.0001 \
	wolfeGradient        0.9 \
	fdTest               no
exchange-regularization WignerSeitzTruncated
fix-electron-density totalE.$VAR
fluid None
fluid-ex-corr lda-TF lda-PZ
fluid-gummel-loop 10 1.000000e-05
fluid-minimize  \
	dirUpdateScheme      PolakRibiere \
	linminMethod         DirUpdateRecommended \
	nIterations          100 \
	history              15 \
	knormThreshold       0 \
	energyDiffThreshold  0 \
	nEnergyDiff          2 \
	alphaTstart          1 \
	alphaTmin            1e-10 \
	updateTestStepSize   yes \
	alphaTreduceFactor   0.1 \
	alphaTincreaseFactor 3 \
	nAlphaAdjustMax      3 \
	wolfeEnergy          0.0001 \
	wolfeGradient        0.9 \
	fdTest               no
fluid-solvent H2O 55.338 ScalarEOS \
	epsBulk 78.4 \
	pMol 0.92466 \
	epsInf 1.77 \
	Pvap 1.06736e-10 \
	sigmaBulk 4.62e-05 \
	Rvdw 2.61727 \
	Res 1.42 \
	tauNuc 343133 \
	omegaEl 0.55124 \
	gammaEl 0.257245
forces-output-coords Positions
ion C   0.000000000000000   0.000000000000000   0.000000000000000 0
ion C   0.333333000000000  -0.333333000000000   0.000000000000000 0
ion-species GBRV/$ID_pbe.uspp
ion-width 0
ionic-minimize  \
	dirUpdateScheme      L-BFGS \
	linminMethod         DirUpdateRecommended \
	nIterations          0 \
	history              15 \
	knormThreshold       0.0001 \
	energyDiffThreshold  1e-06 \
	nEnergyDiff          2 \
	alphaTstart          1 \
	alphaTmin            1e-10 \
	updateTestStepSize   yes \
	alphaTreduceFactor   0.1 \
	alphaTincreaseFactor 3 \
	nAlphaAdjustMax      3 \
	wolfeEnergy          0.0001 \
	wolfeGradient        0.9 \
	fdTest               no
kpoint   0.000000000000   0.000000000000   0.000000000000  0.01204819277108
kpoint   0.020000000000   0.000000000000   0.000000000000  0.01204819277108
kpoint   0.040000000000   0.000000000000   0.000000000000  0.01204819277108
kpoint   0.060000000000   0.000000000000   0.000000000000  0.01204819277108
kpoint   0.080000000000   0.000000000000   0.000000000000  0.01204819277108
kpoint   0.100000000000   0.000000000000   0.000000000000  0.01204819277108
kpoint   0.120000000000   0.000000000000   0.000000000000  0.01204819277108
kpoint   0.140000000000   0.000000000000   0.000000000000  0.01204819277108
kpoint   0.160000000000   0.000000000000   0.000000000000  0.01204819277108
kpoint   0.180000000000   0.000000000000   0.000000000000  0.01204819277108
kpoint   0.200000000000   0.000000000000   0.000000000000  0.01204819277108
kpoint   0.220000000000   0.000000000000   0.000000000000  0.01204819277108
kpoint   0.240000000000   0.000000000000   0.000000000000  0.01204819277108
kpoint   0.260000000000   0.000000000000   0.000000000000  0.01204819277108
kpoint   0.280000000000   0.000000000000   0.000000000000  0.01204819277108
kpoint   0.300000000000   0.000000000000   0.000000000000  0.01204819277108
kpoint   0.320000000000   0.000000000000   0.000000000000  0.01204819277108
kpoint   0.340000000000   0.000000000000   0.000000000000  0.01204819277108
kpoint   0.360000000000   0.000000000000   0.000000000000  0.01204819277108
kpoint   0.380000000000   0.000000000000   0.000000000000  0.01204819277108
kpoint   0.400000000000   0.000000000000   0.000000000000  0.01204819277108
kpoint   0.420000000000   0.000000000000   0.000000000000  0.01204819277108
kpoint   0.440000000000   0.000000000000   0.000000000000  0.01204819277108
kpoint   0.460000000000   0.000000000000   0.000000000000  0.01204819277108
kpoint   0.480000000000   0.000000000000   0.000000000000  0.01204819277108
kpoint   0.500000000000   0.000000000000   0.000000000000  0.01204819277108
kpoint   0.508772105263  -0.017543684211   0.000000000000  0.01204819277108
kpoint   0.517544210526  -0.035087368421   0.000000000000  0.01204819277108
kpoint   0.526316315789  -0.052631052632   0.000000000000  0.01204819277108
kpoint   0.535088421053  -0.070174736842   0.000000000000  0.01204819277108
kpoint   0.543860526316  -0.087718421053   0.000000000000  0.01204819277108
kpoint   0.552632631579  -0.105262105263   0.000000000000  0.01204819277108
kpoint   0.561404736842  -0.122805789474   0.000000000000  0.01204819277108
kpoint   0.570176842105  -0.140349473684   0.000000000000  0.01204819277108
kpoint   0.578948947368  -0.157893157895   0.000000000000  0.01204819277108
kpoint   0.587721052632  -0.175436842105   0.000000000000  0.01204819277108
kpoint   0.596493157895  -0.192980526316   0.000000000000  0.01204819277108
kpoint   0.605265263158  -0.210524210526   0.000000000000  0.01204819277108
kpoint   0.614037368421  -0.228067894737   0.000000000000  0.01204819277108
kpoint   0.622809473684  -0.245611578947   0.000000000000  0.01204819277108
kpoint   0.631581578947  -0.263155263158   0.000000000000  0.01204819277108
kpoint   0.640353684211  -0.280698947368   0.000000000000  0.01204819277108
kpoint   0.649125789474  -0.298242631579   0.000000000000  0.01204819277108
kpoint   0.657897894737  -0.315786315789   0.000000000000  0.01204819277108
kpoint   0.666670000000  -0.333330000000   0.000000000000  0.01204819277108
kpoint   0.649126052632  -0.324558157895   0.000000000000  0.01204819277108
kpoint   0.631582105263  -0.315786315789   0.000000000000  0.01204819277108
kpoint   0.614038157895  -0.307014473684   0.000000000000  0.01204819277108
kpoint   0.596494210526  -0.298242631579   0.000000000000  0.01204819277108
kpoint   0.578950263158  -0.289470789474   0.000000000000  0.01204819277108
kpoint   0.561406315789  -0.280698947368   0.000000000000  0.01204819277108
kpoint   0.543862368421  -0.271927105263   0.000000000000  0.01204819277108
kpoint   0.526318421053  -0.263155263158   0.000000000000  0.01204819277108
kpoint   0.508774473684  -0.254383421053   0.000000000000  0.01204819277108
kpoint   0.491230526316  -0.245611578947   0.000000000000  0.01204819277108
kpoint   0.473686578947  -0.236839736842   0.000000000000  0.01204819277108
kpoint   0.456142631579  -0.228067894737   0.000000000000  0.01204819277108
kpoint   0.438598684211  -0.219296052632   0.000000000000  0.01204819277108
kpoint   0.421054736842  -0.210524210526   0.000000000000  0.01204819277108
kpoint   0.403510789474  -0.201752368421   0.000000000000  0.01204819277108
kpoint   0.385966842105  -0.192980526316   0.000000000000  0.01204819277108
kpoint   0.368422894737  -0.184208684211   0.000000000000  0.01204819277108
kpoint   0.350878947368  -0.175436842105   0.000000000000  0.01204819277108
kpoint   0.333335000000  -0.166665000000   0.000000000000  0.01204819277108
kpoint   0.315791052632  -0.157893157895   0.000000000000  0.01204819277108
kpoint   0.298247105263  -0.149121315789   0.000000000000  0.01204819277108
kpoint   0.280703157895  -0.140349473684   0.000000000000  0.01204819277108
kpoint   0.263159210526  -0.131577631579   0.000000000000  0.01204819277108
kpoint   0.245615263158  -0.122805789474   0.000000000000  0.01204819277108
kpoint   0.228071315789  -0.114033947368   0.000000000000  0.01204819277108
kpoint   0.210527368421  -0.105262105263   0.000000000000  0.01204819277108
kpoint   0.192983421053  -0.096490263158   0.000000000000  0.01204819277108
kpoint   0.175439473684  -0.087718421053   0.000000000000  0.01204819277108
kpoint   0.157895526316  -0.078946578947   0.000000000000  0.01204819277108
kpoint   0.140351578947  -0.070174736842   0.000000000000  0.01204819277108
kpoint   0.122807631579  -0.061402894737   0.000000000000  0.01204819277108
kpoint   0.105263684211  -0.052631052632   0.000000000000  0.01204819277108
kpoint   0.087719736842  -0.043859210526   0.000000000000  0.01204819277108
kpoint   0.070175789474  -0.035087368421   0.000000000000  0.01204819277108
kpoint   0.052631842105  -0.026315526316   0.000000000000  0.01204819277108
kpoint   0.035087894737  -0.017543684211   0.000000000000  0.01204819277108
kpoint   0.017543947368  -0.008771842105   0.000000000000  0.01204819277108
kpoint   0.000000000000   0.000000000000   0.000000000000  0.01204819277108
kpoint-folding 1 1 1 
latt-move-scale 1 1 1
latt-scale 1 1 1 
lattice Hexagonal 4.651 15
lattice-minimize  \
	dirUpdateScheme      L-BFGS \
	linminMethod         DirUpdateRecommended \
	nIterations          0 \
	history              15 \
	knormThreshold       0 \
	energyDiffThreshold  1e-06 \
	nEnergyDiff          2 \
	alphaTstart          1 \
	alphaTmin            1e-10 \
	updateTestStepSize   yes \
	alphaTreduceFactor   0.1 \
	alphaTincreaseFactor 3 \
	nAlphaAdjustMax      3 \
	wolfeEnergy          0.0001 \
	wolfeGradient        0.9 \
	fdTest               no
lcao-params -1 1e-06 0.001
pcm-variant GLSSA13
spintype no-spin
subspace-rotation-factor 1 yes
symmetries none
symmetry-threshold 0.0001


Applied RMS atom displacement 0 bohrs to make symmetries exact.

---------- Initializing the Grid ----------
R = 
[      4.651    -2.3255          0  ]
[          0    4.02788          0  ]
[          0          0         15  ]
unit cell volume = 281.005
G =
[    1.35093   0.779961         -0  ]
[          0    1.55992          0  ]
[          0         -0   0.418879  ]
Minimum fftbox size, Smin = [  24  24  68  ]
Chosen fftbox size, S = [  24  24  70  ]

---------- Initializing tighter grid for wavefunction operations ----------
R = 
[      4.651    -2.3255          0  ]
[          0    4.02788          0  ]
[          0          0         15  ]
unit cell volume = 281.005
G =
[    1.35093   0.779961         -0  ]
[          0    1.55992          0  ]
[          0         -0   0.418879  ]
Minimum fftbox size, Smin = [  20  20  64  ]
Chosen fftbox size, S = [  20  20  64  ]

---------- Exchange Correlation functional ----------
Initalized PBE GGA exchange.
Initalized PBE GGA correlation.

---------- Setting up pseudopotentials ----------
Width of ionic core gaussian charges (only for fluid interactions / plotting) set to 0

Reading pseudopotential file '/home/jfm343/JDFTXDIR/build/pseudopotentials/GBRV/c_pbe.uspp':
  Title: C.  Created by USPP 7.3.6 on 3-2-2014
  Reference state energy: -5.406344.  4 valence electrons in orbitals:
    |200>  occupation: 2  eigenvalue: -0.504890
    |210>  occupation: 2  eigenvalue: -0.194356
  lMax: 1  lLocal: 2  QijEcut: 5
  4 projectors sampled on a log grid with 503 points:
    l: 0  eig: -0.504890  rCut: 1.3
    l: 0  eig: 0.000000  rCut: 1.3
    l: 1  eig: -0.194357  rCut: 1.3
    l: 1  eig: 0.000000  rCut: 1.3
  Partial core density with radius 1.1
  Transforming core density to a uniform radial grid of dG=0.02 with 1785 points.
  Transforming local potential to a uniform radial grid of dG=0.02 with 1785 points.
  Transforming nonlocal projectors to a uniform radial grid of dG=0.02 with 432 points.
  Transforming density augmentations to a uniform radial grid of dG=0.02 with 1785 points.
  Transforming atomic orbitals to a uniform radial grid of dG=0.02 with 432 points.
  Core radius for overlap checks: 1.30 bohrs.

Initialized 1 species with 2 total atoms.

Folded 83 k-points by 1x1x1 to 83 k-points.

---------- Setting up k-points, bands, fillings ----------
No reducable k-points. 
Computing the number of bands and number of electrons
Calculating initial fillings.
nElectrons:   8.000000   nBands: 8   nStates: 83

----- Setting up reduced wavefunction bases (one per k-point) -----
average nbasis = 1199.253 , ideal nbasis = 1200.476

---------- Setting up coulomb interaction ----------
Setting up double-sized grid for truncated Coulomb potentials:
R = 
[      4.651    -2.3255          0  ]
[          0    4.02788          0  ]
[          0          0         30  ]
unit cell volume = 562.011
G =
[    1.35093   0.779961         -0  ]
[          0    1.55992          0  ]
[          0         -0    0.20944  ]
Chosen fftbox size, S = [  24  24  140  ]
Integer grid location selected as the embedding center:
   Grid: [  0  0  0  ]
   Lattice: [  0  0  0  ]
   Cartesian: [  0  0  0  ]
Constructing Wigner-Seitz cell: 8 faces (6 quadrilaterals, 2 hexagons)
Range-separation parameter for embedded mesh potentials due to point charges: 0.583992 bohrs.
Initialized slab truncation along lattice direction 001

---------- Setting up 2D ewald sum ----------
Optimum gaussian width for ewald sums = 2.582047 bohr.
Real space sums over 289 unit cells with max indices [  8  8  0  ]
Reciprocal space sums over 81 terms with max indices [  4  4  0  ]

---------- Allocating electronic variables ----------
Reading "n" from file 'totalE.n' ... done
Initializing wave functions:  linear combination of atomic orbitals


---- Citations for features of the code used in this run ----

   Software package:
      R. Sundararaman, K. Letchworth-Weaver, K.A. Schwarz, D. Gunceler, Y. Ozhabes and T.A. Arias, 'JDFTx: software for joint density-functional theory', SoftwareX 6, 278 (2017)

   gga-PBE exchange-correlation functional:
      J.P. Perdew, K. Burke and M. Ernzerhof, Phys. Rev. Lett. 77, 3865 (1996)

   Pseudopotentials:
      KF Garrity, JW Bennett, KM Rabe and D Vanderbilt, Comput. Mater. Sci. 81, 446 (2014)

   Truncated Coulomb potentials:
      R. Sundararaman and T.A. Arias, Phys. Rev. B 87, 165122 (2013)

   Total energy minimization:
      T.A. Arias, M.C. Payne and J.D. Joannopoulos, Phys. Rev. Lett. 69, 1077 (1992)

This list may not be complete. Please suggest additional citations or
report any other bugs at https://github.com/shankar1729/jdftx/issues

Initialization completed successfully at t[s]:      2.61


----------- Band structure minimization -------------
Minimization will be done independently for each quantum number.

---- Minimization of quantum number:     0  [ +0.0000000 +0.0000000 +0.0000000 ]  0.024096386 ----
BandDavidson: Iter:   0  Eband: -0.021453869716546
BandDavidson: Iter:   1  Eband: -0.035985792848248  dEband: -1.453192e-02  t[s]:      2.67
BandDavidson: Iter:   2  Eband: -0.037452050759766  dEband: -1.466258e-03  t[s]:      2.69
BandDavidson: Iter:   3  Eband: -0.037537556294576  dEband: -8.550553e-05  t[s]:      2.70
BandDavidson: Iter:   4  Eband: -0.037543896324825  dEband: -6.340030e-06  t[s]:      2.72
BandDavidson: Iter:   5  Eband: -0.037544546879438  dEband: -6.505546e-07  t[s]:      2.74
BandDavidson: Iter:   6  Eband: -0.037544652117292  dEband: -1.052379e-07  t[s]:      2.75
BandDavidson: Iter:   7  Eband: -0.037544679456438  dEband: -2.733915e-08  t[s]:      2.77
BandDavidson: Iter:   8  Eband: -0.037544688743647  dEband: -9.287210e-09  t[s]:      2.79
BandDavidson: Converged (dEband<1.000000e-08)

---- Minimization of quantum number:     1  [ +0.0200000 +0.0000000 +0.0000000 ]  0.024096386 ----
BandDavidson: Iter:   0  Eband: -0.022551819232199
BandDavidson: Iter:   1  Eband: -0.035816064377870  dEband: -1.326425e-02  t[s]:      2.81
BandDavidson: Iter:   2  Eband: -0.037394253217935  dEband: -1.578189e-03  t[s]:      2.83
BandDavidson: Iter:   3  Eband: -0.037529416084173  dEband: -1.351629e-04  t[s]:      2.85
BandDavidson: Iter:   4  Eband: -0.037539333395209  dEband: -9.917311e-06  t[s]:      2.86
BandDavidson: Iter:   5  Eband: -0.037540551143094  dEband: -1.217748e-06  t[s]:      2.88
BandDavidson: Iter:   6  Eband: -0.037540792478364  dEband: -2.413353e-07  t[s]:      2.90
BandDavidson: Iter:   7  Eband: -0.037540856764731  dEband: -6.428637e-08  t[s]:      2.91
BandDavidson: Iter:   8  Eband: -0.037540877602365  dEband: -2.083763e-08  t[s]:      2.93
BandDavidson: Iter:   9  Eband: -0.037540885109378  dEband: -7.507013e-09  t[s]:      2.95
BandDavidson: Converged (dEband<1.000000e-08)

---- Minimization of quantum number:     2  [ +0.0400000 +0.0000000 +0.0000000 ]  0.024096386 ----
BandDavidson: Iter:   0  Eband: -0.019205548449087
BandDavidson: Iter:   1  Eband: -0.035686681270084  dEband: -1.648113e-02  t[s]:      2.97
BandDavidson: Iter:   2  Eband: -0.037476281222212  dEband: -1.789600e-03  t[s]:      2.99
BandDavidson: Iter:   3  Eband: -0.037523696444046  dEband: -4.741522e-05  t[s]:      3.01
BandDavidson: Iter:   4  Eband: -0.037526926299124  dEband: -3.229855e-06  t[s]:      3.03
BandDavidson: Iter:   5  Eband: -0.037527376615450  dEband: -4.503163e-07  t[s]:      3.04
BandDavidson: Iter:   6  Eband: -0.037527515750666  dEband: -1.391352e-07  t[s]:      3.06
BandDavidson: Iter:   7  Eband: -0.037527580283575  dEband: -6.453291e-08  t[s]:      3.08
BandDavidson: Iter:   8  Eband: -0.037527615722659  dEband: -3.543908e-08  t[s]:      3.09
BandDavidson: Iter:   9  Eband: -0.037527635841016  dEband: -2.011836e-08  t[s]:      3.11
BandDavidson: Iter:  10  Eband: -0.037527647562645  dEband: -1.172163e-08  t[s]:      3.13
BandDavidson: Iter:  11  Eband: -0.037527654568461  dEband: -7.005815e-09  t[s]:      3.14
BandDavidson: Converged (dEband<1.000000e-08)

---- Minimization of quantum number:     3  [ +0.0600000 +0.0000000 +0.0000000 ]  0.024096386 ----
BandDavidson: Iter:   0  Eband: -0.022662681402831
BandDavidson: Iter:   1  Eband: -0.035760187069572  dEband: -1.309751e-02  t[s]:      3.17
BandDavidson: Iter:   2  Eband: -0.037431101040576  dEband: -1.670914e-03  t[s]:      3.19
BandDavidson: Iter:   3  Eband: -0.037495419829556  dEband: -6.431879e-05  t[s]:      3.20
BandDavidson: Iter:   4  Eband: -0.037501551267906  dEband: -6.131438e-06  t[s]:      3.22
BandDavidson: Iter:   5  Eband: -0.037502667166089  dEband: -1.115898e-06  t[s]:      3.24
BandDavidson: Iter:   6  Eband: -0.037503019111099  dEband: -3.519450e-07  t[s]:      3.25
BandDavidson: Iter:   7  Eband: -0.037503178428485  dEband: -1.593174e-07  t[s]:      3.27
BandDavidson: Iter:   8  Eband: -0.037503262691602  dEband: -8.426312e-08  t[s]:      3.29
BandDavidson: Iter:   9  Eband: -0.037503312357175  dEband: -4.966557e-08  t[s]:      3.30
BandDavidson: Iter:  10  Eband: -0.037503341359454  dEband: -2.900228e-08  t[s]:      3.32
BandDavidson: Iter:  11  Eband: -0.037503358858308  dEband: -1.749885e-08  t[s]:      3.33
BandDavidson: Iter:  12  Eband: -0.037503369622387  dEband: -1.076408e-08  t[s]:      3.35
BandDavidson: Iter:  13  Eband: -0.037503376266086  dEband: -6.643699e-09  t[s]:      3.37
BandDavidson: Converged (dEband<1.000000e-08)

---- Minimization of quantum number:     4  [ +0.0800000 +0.0000000 +0.0000000 ]  0.024096386 ----
BandDavidson: Iter:   0  Eband: -0.020178807028836
BandDavidson: Iter:   1  Eband: -0.034626783073286  dEband: -1.444798e-02  t[s]:      3.39
BandDavidson: Iter:   2  Eband: -0.036429213852085  dEband: -1.802431e-03  t[s]:      3.41
BandDavidson: Iter:   3  Eband: -0.037360797306799  dEband: -9.315835e-04  t[s]:      3.43
BandDavidson: Iter:   4  Eband: -0.037451029040673  dEband: -9.023173e-05  t[s]:      3.45
BandDavidson: Iter:   5  Eband: -0.037460653817268  dEband: -9.624777e-06  t[s]:      3.46
BandDavidson: Iter:   6  Eband: -0.037462404005192  dEband: -1.750188e-06  t[s]:      3.48
BandDavidson: Iter:   7  Eband: -0.037463020705026  dEband: -6.166998e-07  t[s]:      3.50
BandDavidson: Iter:   8  Eband: -0.037463320543167  dEband: -2.998381e-07  t[s]:      3.51
BandDavidson: Iter:   9  Eband: -0.037463487145870  dEband: -1.666027e-07  t[s]:      3.53
BandDavidson: Iter:  10  Eband: -0.037463583376932  dEband: -9.623106e-08  t[s]:      3.55
BandDavidson: Iter:  11  Eband: -0.037463640865130  dEband: -5.748820e-08  t[s]:      3.56
BandDavidson: Iter:  12  Eband: -0.037463674936479  dEband: -3.407135e-08  t[s]:      3.58
BandDavidson: Iter:  13  Eband: -0.037463695693003  dEband: -2.075652e-08  t[s]:      3.60
BandDavidson: Iter:  14  Eband: -0.037463708453000  dEband: -1.276000e-08  t[s]:      3.61
BandDavidson: Iter:  15  Eband: -0.037463716483802  dEband: -8.030802e-09  t[s]:      3.63
BandDavidson: Converged (dEband<1.000000e-08)

---- Minimization of quantum number:     5  [ +0.1000000 +0.0000000 +0.0000000 ]  0.024096386 ----
BandDavidson: Iter:   0  Eband: -0.019235187983936
BandDavidson: Iter:   1  Eband: -0.036004458653205  dEband: -1.676927e-02  t[s]:      3.66
BandDavidson: Iter:   2  Eband: -0.037345346130298  dEband: -1.340887e-03  t[s]:      3.68
BandDavidson: Iter:   3  Eband: -0.037391511609260  dEband: -4.616548e-05  t[s]:      3.69
BandDavidson: Iter:   4  Eband: -0.037398451648828  dEband: -6.940040e-06  t[s]:      3.71
BandDavidson: Iter:   5  Eband: -0.037400845610682  dEband: -2.393962e-06  t[s]:      3.72
BandDavidson: Iter:   6  Eband: -0.037402007757070  dEband: -1.162146e-06  t[s]:      3.74
BandDavidson: Iter:   7  Eband: -0.037402644816392  dEband: -6.370593e-07  t[s]:      3.76
BandDavidson: Iter:   8  Eband: -0.037403015112658  dEband: -3.702963e-07  t[s]:      3.78
BandDavidson: Iter:   9  Eband: -0.037403231628667  dEband: -2.165160e-07  t[s]:      3.79
BandDavidson: Iter:  10  Eband: -0.037403360585620  dEband: -1.289570e-07  t[s]:      3.81
BandDavidson: Iter:  11  Eband: -0.037403437552732  dEband: -7.696711e-08  t[s]:      3.83
BandDavidson: Iter:  12  Eband: -0.037403483778056  dEband: -4.622532e-08  t[s]:      3.85
BandDavidson: Iter:  13  Eband: -0.037403511683164  dEband: -2.790511e-08  t[s]:      3.86
BandDavidson: Iter:  14  Eband: -0.037403528569431  dEband: -1.688627e-08  t[s]:      3.88
BandDavidson: Iter:  15  Eband: -0.037403538848750  dEband: -1.027932e-08  t[s]:      3.89
BandDavidson: Iter:  16  Eband: -0.037403545126486  dEband: -6.277737e-09  t[s]:      3.91
BandDavidson: Converged (dEband<1.000000e-08)

---- Minimization of quantum number:     6  [ +0.1200000 +0.0000000 +0.0000000 ]  0.024096386 ----
BandDavidson: Iter:   0  Eband: -0.021600211722991
BandDavidson: Iter:   1  Eband: -0.035440256671900  dEband: -1.384004e-02  t[s]:      3.93
BandDavidson: Iter:   2  Eband: -0.037209874089622  dEband: -1.769617e-03  t[s]:      3.95
BandDavidson: Iter:   3  Eband: -0.037296301329144  dEband: -8.642724e-05  t[s]:      3.97
BandDavidson: Iter:   4  Eband: -0.037309116451744  dEband: -1.281512e-05  t[s]:      3.99
BandDavidson: Iter:   5  Eband: -0.037312227080027  dEband: -3.110628e-06  t[s]:      4.01
BandDavidson: Iter:   6  Eband: -0.037313454197740  dEband: -1.227118e-06  t[s]:      4.02
BandDavidson: Iter:   7  Eband: -0.037314084178721  dEband: -6.299810e-07  t[s]:      4.04
BandDavidson: Iter:   8  Eband: -0.037314445488018  dEband: -3.613093e-07  t[s]:      4.06
BandDavidson: Iter:   9  Eband: -0.037314663524752  dEband: -2.180367e-07  t[s]:      4.07
BandDavidson: Iter:  10  Eband: -0.037314797492094  dEband: -1.339673e-07  t[s]:      4.09
BandDavidson: Iter:  11  Eband: -0.037314880699053  dEband: -8.320696e-08  t[s]:      4.11
BandDavidson: Iter:  12  Eband: -0.037314932998725  dEband: -5.229967e-08  t[s]:      4.12
BandDavidson: Iter:  13  Eband: -0.037314966204021  dEband: -3.320530e-08  t[s]:      4.14
BandDavidson: Iter:  14  Eband: -0.037314987585797  dEband: -2.138178e-08  t[s]:      4.15
BandDavidson: Iter:  15  Eband: -0.037315001682808  dEband: -1.409701e-08  t[s]:      4.17
BandDavidson: Iter:  16  Eband: -0.037315011183858  dEband: -9.501051e-09  t[s]:      4.19
BandDavidson: Converged (dEband<1.000000e-08)

---- Minimization of quantum number:     7  [ +0.1400000 +0.0000000 +0.0000000 ]  0.024096386 ----
BandDavidson: Iter:   0  Eband: -0.019712819954213
BandDavidson: Iter:   1  Eband: -0.034158486473889  dEband: -1.444567e-02  t[s]:      4.21
BandDavidson: Iter:   2  Eband: -0.036245594928560  dEband: -2.087108e-03  t[s]:      4.23
BandDavidson: Iter:   3  Eband: -0.037123796086425  dEband: -8.782012e-04  t[s]:      4.25
BandDavidson: Iter:   4  Eband: -0.037177847453539  dEband: -5.405137e-05  t[s]:      4.26
BandDavidson: Iter:   5  Eband: -0.037185427089791  dEband: -7.579636e-06  t[s]:      4.28
BandDavidson: Iter:   6  Eband: -0.037187426822615  dEband: -1.999733e-06  t[s]:      4.30
BandDavidson: Iter:   7  Eband: -0.037188298869126  dEband: -8.720465e-07  t[s]:      4.31
BandDavidson: Iter:   8  Eband: -0.037188782186646  dEband: -4.833175e-07  t[s]:      4.33
BandDavidson: Iter:   9  Eband: -0.037189075155533  dEband: -2.929689e-07  t[s]:      4.35
BandDavidson: Iter:  10  Eband: -0.037189262932997  dEband: -1.877775e-07  t[s]:      4.36
BandDavidson: Iter:  11  Eband: -0.037189386577068  dEband: -1.236441e-07  t[s]:      4.38
BandDavidson: Iter:  12  Eband: -0.037189471516628  dEband: -8.493956e-08  t[s]:      4.40
BandDavidson: Iter:  13  Eband: -0.037189531683897  dEband: -6.016727e-08  t[s]:      4.42
BandDavidson: Iter:  14  Eband: -0.037189575527444  dEband: -4.384355e-08  t[s]:      4.43
BandDavidson: Iter:  15  Eband: -0.037189608339982  dEband: -3.281254e-08  t[s]:      4.45
BandDavidson: Iter:  16  Eband: -0.037189633391932  dEband: -2.505195e-08  t[s]:      4.46
BandDavidson: Iter:  17  Eband: -0.037189652882387  dEband: -1.949045e-08  t[s]:      4.48
BandDavidson: Iter:  18  Eband: -0.037189668275481  dEband: -1.539309e-08  t[s]:      4.50
BandDavidson: Iter:  19  Eband: -0.037189680605861  dEband: -1.233038e-08  t[s]:      4.51
BandDavidson: Iter:  20  Eband: -0.037189690568090  dEband: -9.962228e-09  t[s]:      4.53
BandDavidson: Converged (dEband<1.000000e-08)

---- Minimization of quantum number:     8  [ +0.1600000 +0.0000000 +0.0000000 ]  0.024096386 ----
BandDavidson: Iter:   0  Eband: -0.018747505810582
BandDavidson: Iter:   1  Eband: -0.034338169158100  dEband: -1.559066e-02  t[s]:      4.55
BandDavidson: Iter:   2  Eband: -0.036865364538825  dEband: -2.527195e-03  t[s]:      4.57
BandDavidson: Iter:   3  Eband: -0.036976338890587  dEband: -1.109744e-04  t[s]:      4.59
BandDavidson: Iter:   4  Eband: -0.036999662521487  dEband: -2.332363e-05  t[s]:      4.60
BandDavidson: Iter:   5  Eband: -0.037008049625491  dEband: -8.387104e-06  t[s]:      4.62
BandDavidson: Iter:   6  Eband: -0.037012089817149  dEband: -4.040192e-06  t[s]:      4.64
BandDavidson: Iter:   7  Eband: -0.037014170869225  dEband: -2.081052e-06  t[s]:      4.66
BandDavidson: Iter:   8  Eband: -0.037015335169799  dEband: -1.164301e-06  t[s]:      4.67
BandDavidson: Iter:   9  Eband: -0.037016015184326  dEband: -6.800145e-07  t[s]:      4.69
BandDavidson: Iter:  10  Eband: -0.037016423964506  dEband: -4.087802e-07  t[s]:      4.71
BandDavidson: Iter:  11  Eband: -0.037016683678869  dEband: -2.597144e-07  t[s]:      4.73
BandDavidson: Iter:  12  Eband: -0.037016848358681  dEband: -1.646798e-07  t[s]:      4.74
BandDavidson: Iter:  13  Eband: -0.037016957951150  dEband: -1.095925e-07  t[s]:      4.76
BandDavidson: Iter:  14  Eband: -0.037017032282023  dEband: -7.433087e-08  t[s]:      4.78
BandDavidson: Iter:  15  Eband: -0.037017083718751  dEband: -5.143673e-08  t[s]:      4.79
BandDavidson: Iter:  16  Eband: -0.037017120350322  dEband: -3.663157e-08  t[s]:      4.80
BandDavidson: Iter:  17  Eband: -0.037017147327512  dEband: -2.697719e-08  t[s]:      4.82
BandDavidson: Iter:  18  Eband: -0.037017167620934  dEband: -2.029342e-08  t[s]:      4.83
BandDavidson: Iter:  19  Eband: -0.037017183205371  dEband: -1.558444e-08  t[s]:      4.85
BandDavidson: Iter:  20  Eband: -0.037017195304143  dEband: -1.209877e-08  t[s]:      4.86
BandDavidson: Iter:  21  Eband: -0.037017204836135  dEband: -9.531992e-09  t[s]:      4.88
BandDavidson: Converged (dEband<1.000000e-08)

---- Minimization of quantum number:     9  [ +0.1800000 +0.0000000 +0.0000000 ]  0.024096386 ----
BandDavidson: Iter:   0  Eband: -0.020999567899023
BandDavidson: Iter:   1  Eband: -0.034765172690600  dEband: -1.376560e-02  t[s]:      4.90
BandDavidson: Iter:   2  Eband: -0.036294785297850  dEband: -1.529613e-03  t[s]:      4.92
BandDavidson: Iter:   3  Eband: -0.036465012110932  dEband: -1.702268e-04  t[s]:      4.94
BandDavidson: Iter:   4  Eband: -0.036511513455199  dEband: -4.650134e-05  t[s]:      4.95
BandDavidson: Iter:   5  Eband: -0.036534660180038  dEband: -2.314672e-05  t[s]:      4.97
BandDavidson: Iter:   6  Eband: -0.036543062550818  dEband: -8.402371e-06  t[s]:      4.99
BandDavidson: Iter:   7  Eband: -0.036558950361120  dEband: -1.588781e-05  t[s]:      5.00
BandDavidson: Iter:   8  Eband: -0.036616296443899  dEband: -5.734608e-05  t[s]:      5.02
BandDavidson: Iter:   9  Eband: -0.036663346969053  dEband: -4.705053e-05  t[s]:      5.04
BandDavidson: Iter:  10  Eband: -0.036695405510589  dEband: -3.205854e-05  t[s]:      5.06
BandDavidson: Iter:  11  Eband: -0.036718577238484  dEband: -2.317173e-05  t[s]:      5.08
BandDavidson: Iter:  12  Eband: -0.036735019410678  dEband: -1.644217e-05  t[s]:      5.10
BandDavidson: Iter:  13  Eband: -0.036747320205543  dEband: -1.230079e-05  t[s]:      5.11
BandDavidson: Iter:  14  Eband: -0.036756475766703  dEband: -9.155561e-06  t[s]:      5.13
BandDavidson: Iter:  15  Eband: -0.036763473621760  dEband: -6.997855e-06  t[s]:      5.15
BandDavidson: Iter:  16  Eband: -0.036768839455891  dEband: -5.365834e-06  t[s]:      5.16
BandDavidson: Iter:  17  Eband: -0.036772976995366  dEband: -4.137539e-06  t[s]:      5.18
BandDavidson: Iter:  18  Eband: -0.036776187422899  dEband: -3.210428e-06  t[s]:      5.20
BandDavidson: Iter:  19  Eband: -0.036778674648544  dEband: -2.487226e-06  t[s]:      5.21
BandDavidson: Iter:  20  Eband: -0.036780611433536  dEband: -1.936785e-06  t[s]:      5.23
BandDavidson: Iter:  21  Eband: -0.036782121324031  dEband: -1.509890e-06  t[s]:      5.24
BandDavidson: Iter:  22  Eband: -0.036783305110568  dEband: -1.183787e-06  t[s]:      5.25
BandDavidson: Iter:  23  Eband: -0.036784232390624  dEband: -9.272801e-07  t[s]:      5.27
BandDavidson: Iter:  24  Eband: -0.036784960021600  dEband: -7.276310e-07  t[s]:      5.28
BandDavidson: Iter:  25  Eband: -0.036785531029896  dEband: -5.710083e-07  t[s]:      5.30
BandDavidson: Iter:  26  Eband: -0.036785979413741  dEband: -4.483838e-07  t[s]:      5.31
BandDavidson: Iter:  27  Eband: -0.036786331423574  dEband: -3.520098e-07  t[s]:      5.33
BandDavidson: Iter:  28  Eband: -0.036786608069797  dEband: -2.766462e-07  t[s]:      5.34
BandDavidson: Iter:  29  Eband: -0.036786825140816  dEband: -2.170710e-07  t[s]:      5.36
BandDavidson: Iter:  30  Eband: -0.036786995793167  dEband: -1.706524e-07  t[s]:      5.37
BandDavidson: Iter:  31  Eband: -0.036787129907551  dEband: -1.341144e-07  t[s]:      5.39
BandDavidson: Iter:  32  Eband: -0.036787235486444  dEband: -1.055789e-07  t[s]:      5.40
BandDavidson: Iter:  33  Eband: -0.036787318586458  dEband: -8.310001e-08  t[s]:      5.41
BandDavidson: Iter:  34  Eband: -0.036787384029854  dEband: -6.544340e-08  t[s]:      5.43
BandDavidson: Iter:  35  Eband: -0.036787435568057  dEband: -5.153820e-08  t[s]:      5.44
BandDavidson: Iter:  36  Eband: -0.036787476170181  dEband: -4.060212e-08  t[s]:      5.45
BandDavidson: Iter:  37  Eband: -0.036787508156341  dEband: -3.198616e-08  t[s]:      5.47
BandDavidson: Iter:  38  Eband: -0.036787533362396  dEband: -2.520606e-08  t[s]:      5.48
BandDavidson: Iter:  39  Eband: -0.036787553224875  dEband: -1.986248e-08  t[s]:      5.49
BandDavidson: Iter:  40  Eband: -0.036787568880943  dEband: -1.565607e-08  t[s]:      5.51
BandDavidson: Iter:  41  Eband: -0.036787581220937  dEband: -1.233999e-08  t[s]:      5.53
BandDavidson: Iter:  42  Eband: -0.036787590949816  dEband: -9.728879e-09  t[s]:      5.54
BandDavidson: Converged (dEband<1.000000e-08)

---- Minimization of quantum number:    10  [ +0.2000000 +0.0000000 +0.0000000 ]  0.024096386 ----
BandDavidson: Iter:   0  Eband: -0.017668492739632
BandDavidson: Iter:   1  Eband: -0.034198755128180  dEband: -1.653026e-02  t[s]:      5.56
BandDavidson: Iter:   2  Eband: -0.036405508090697  dEband: -2.206753e-03  t[s]:      5.58
BandDavidson: Iter:   3  Eband: -0.036711793398954  dEband: -3.062853e-04  t[s]:      5.60
BandDavidson: Iter:   4  Eband: -0.036802092321644  dEband: -9.029892e-05  t[s]:      5.62
BandDavidson: Iter:   5  Eband: -0.036836560734653  dEband: -3.446841e-05  t[s]:      5.63
BandDavidson: Iter:   6  Eband: -0.036852390511557  dEband: -1.582978e-05  t[s]:      5.65
BandDavidson: Iter:   7  Eband: -0.036859836312034  dEband: -7.445800e-06  t[s]:      5.67
BandDavidson: Iter:   8  Eband: -0.036863512771722  dEband: -3.676460e-06  t[s]:      5.68
BandDavidson: Iter:   9  Eband: -0.036865318330306  dEband: -1.805559e-06  t[s]:      5.70
BandDavidson: Iter:  10  Eband: -0.036866225057992  dEband: -9.067277e-07  t[s]:      5.72
BandDavidson: Iter:  11  Eband: -0.036866683229546  dEband: -4.581716e-07  t[s]:      5.73
BandDavidson: Iter:  12  Eband: -0.036866917611507  dEband: -2.343820e-07  t[s]:      5.75
BandDavidson: Iter:  13  Eband: -0.036867038922593  dEband: -1.213111e-07  t[s]:      5.76
BandDavidson: Iter:  14  Eband: -0.036867101958821  dEband: -6.303623e-08  t[s]:      5.78
BandDavidson: Iter:  15  Eband: -0.036867135340194  dEband: -3.338137e-08  t[s]:      5.80
BandDavidson: Iter:  16  Eband: -0.036867153177736  dEband: -1.783754e-08  t[s]:      5.81
BandDavidson: Iter:  17  Eband: -0.036867162814496  dEband: -9.636760e-09  t[s]:      5.83
BandDavidson: Converged (dEband<1.000000e-08)

---- Minimization of quantum number:    11  [ +0.2200000 +0.0000000 +0.0000000 ]  0.024096386 ----
BandDavidson: Iter:   0  Eband: -0.020926808138261
BandDavidson: Iter:   1  Eband: -0.035173747727924  dEband: -1.424694e-02  t[s]:      5.85
BandDavidson: Iter:   2  Eband: -0.037042318174918  dEband: -1.868570e-03  t[s]:      5.87
BandDavidson: Iter:   3  Eband: -0.037125531979419  dEband: -8.321380e-05  t[s]:      5.89
BandDavidson: Iter:   4  Eband: -0.037143813637216  dEband: -1.828166e-05  t[s]:      5.90
BandDavidson: Iter:   5  Eband: -0.037150640360457  dEband: -6.826723e-06  t[s]:      5.92
BandDavidson: Iter:   6  Eband: -0.037153655988528  dEband: -3.015628e-06  t[s]:      5.94
BandDavidson: Iter:   7  Eband: -0.037155010103177  dEband: -1.354115e-06  t[s]:      5.96
BandDavidson: Iter:   8  Eband: -0.037155658361990  dEband: -6.482588e-07  t[s]:      5.97
BandDavidson: Iter:   9  Eband: -0.037155973662648  dEband: -3.153007e-07  t[s]:      5.99
BandDavidson: Iter:  10  Eband: -0.037156130098031  dEband: -1.564354e-07  t[s]:      6.01
BandDavidson: Iter:  11  Eband: -0.037156208755323  dEband: -7.865729e-08  t[s]:      6.02
BandDavidson: Iter:  12  Eband: -0.037156248504574  dEband: -3.974925e-08  t[s]:      6.04
BandDavidson: Iter:  13  Eband: -0.037156268832048  dEband: -2.032747e-08  t[s]:      6.06
BandDavidson: Iter:  14  Eband: -0.037156279177201  dEband: -1.034515e-08  t[s]:      6.07
BandDavidson: Iter:  15  Eband: -0.037156284500620  dEband: -5.323420e-09  t[s]:      6.09
BandDavidson: Converged (dEband<1.000000e-08)

---- Minimization of quantum number:    12  [ +0.2400000 +0.0000000 +0.0000000 ]  0.024096386 ----
BandDavidson: Iter:   0  Eband: -0.019806768198799
BandDavidson: Iter:   1  Eband: -0.035293303799304  dEband: -1.548654e-02  t[s]:      6.12
BandDavidson: Iter:   2  Eband: -0.037079951945670  dEband: -1.786648e-03  t[s]:      6.13
BandDavidson: Iter:   3  Eband: -0.037339376469863  dEband: -2.594245e-04  t[s]:      6.15
BandDavidson: Iter:   4  Eband: -0.037382224772457  dEband: -4.284830e-05  t[s]:      6.17
BandDavidson: Iter:   5  Eband: -0.037393647744815  dEband: -1.142297e-05  t[s]:      6.18
BandDavidson: Iter:   6  Eband: -0.037397961849709  dEband: -4.314105e-06  t[s]:      6.20
BandDavidson: Iter:   7  Eband: -0.037399863193908  dEband: -1.901344e-06  t[s]:      6.21
BandDavidson: Iter:   8  Eband: -0.037400761098745  dEband: -8.979048e-07  t[s]:      6.23
BandDavidson: Iter:   9  Eband: -0.037401198042679  dEband: -4.369439e-07  t[s]:      6.25
BandDavidson: Iter:  10  Eband: -0.037401414240374  dEband: -2.161977e-07  t[s]:      6.27
BandDavidson: Iter:  11  Eband: -0.037401522357973  dEband: -1.081176e-07  t[s]:      6.29
BandDavidson: Iter:  12  Eband: -0.037401576778176  dEband: -5.442020e-08  t[s]:      6.30
BandDavidson: Iter:  13  Eband: -0.037401604324759  dEband: -2.754658e-08  t[s]:      6.32
BandDavidson: Iter:  14  Eband: -0.037401618238475  dEband: -1.391372e-08  t[s]:      6.34
BandDavidson: Iter:  15  Eband: -0.037401625341683  dEband: -7.103208e-09  t[s]:      6.35
BandDavidson: Converged (dEband<1.000000e-08)

---- Minimization of quantum number:    13  [ +0.2600000 +0.0000000 +0.0000000 ]  0.024096386 ----
BandDavidson: Iter:   0  Eband: -0.019050653211829
BandDavidson: Iter:   1  Eband: -0.034982685772018  dEband: -1.593203e-02  t[s]:      6.37
BandDavidson: Iter:   2  Eband: -0.037483601844346  dEband: -2.500916e-03  t[s]:      6.39
BandDavidson: Iter:   3  Eband: -0.037566220727418  dEband: -8.261888e-05  t[s]:      6.40
BandDavidson: Iter:   4  Eband: -0.037581956241970  dEband: -1.573551e-05  t[s]:      6.42
BandDavidson: Iter:   5  Eband: -0.037586704992214  dEband: -4.748750e-06  t[s]:      6.44
BandDavidson: Iter:   6  Eband: -0.037588522635597  dEband: -1.817643e-06  t[s]:      6.46
BandDavidson: Iter:   7  Eband: -0.037589284737090  dEband: -7.621015e-07  t[s]:      6.47
BandDavidson: Iter:   8  Eband: -0.037589626058822  dEband: -3.413217e-07  t[s]:      6.49
BandDavidson: Iter:   9  Eband: -0.037589781906853  dEband: -1.558480e-07  t[s]:      6.51
BandDavidson: Iter:  10  Eband: -0.037589855092829  dEband: -7.318598e-08  t[s]:      6.52
BandDavidson: Iter:  11  Eband: -0.037589889701292  dEband: -3.460846e-08  t[s]:      6.54
BandDavidson: Iter:  12  Eband: -0.037589906282284  dEband: -1.658099e-08  t[s]:      6.55
BandDavidson: Iter:  13  Eband: -0.037589914275840  dEband: -7.993556e-09  t[s]:      6.57
BandDavidson: Converged (dEband<1.000000e-08)

---- Minimization of quantum number:    14  [ +0.2800000 +0.0000000 +0.0000000 ]  0.024096386 ----
BandDavidson: Iter:   0  Eband: -0.019878270033774
BandDavidson: Iter:   1  Eband: -0.035297706413178  dEband: -1.541944e-02  t[s]:      6.60
BandDavidson: Iter:   2  Eband: -0.037455054992754  dEband: -2.157349e-03  t[s]:      6.61
BandDavidson: Iter:   3  Eband: -0.037677178910340  dEband: -2.221239e-04  t[s]:      6.63
BandDavidson: Iter:   4  Eband: -0.037700203203868  dEband: -2.302429e-05  t[s]:      6.64
BandDavidson: Iter:   5  Eband: -0.037705630123457  dEband: -5.426920e-06  t[s]:      6.66
BandDavidson: Iter:   6  Eband: -0.037707497976310  dEband: -1.867853e-06  t[s]:      6.68
BandDavidson: Iter:   7  Eband: -0.037708235595787  dEband: -7.376195e-07  t[s]:      6.69
BandDavidson: Iter:   8  Eband: -0.037708556430996  dEband: -3.208352e-07  t[s]:      6.71
BandDavidson: Iter:   9  Eband: -0.037708699267030  dEband: -1.428360e-07  t[s]:      6.73
BandDavidson: Iter:  10  Eband: -0.037708764913167  dEband: -6.564614e-08  t[s]:      6.74
BandDavidson: Iter:  11  Eband: -0.037708795273330  dEband: -3.036016e-08  t[s]:      6.76
BandDavidson: Iter:  12  Eband: -0.037708809506426  dEband: -1.423310e-08  t[s]:      6.78
BandDavidson: Iter:  13  Eband: -0.037708816190731  dEband: -6.684305e-09  t[s]:      6.79
BandDavidson: Converged (dEband<1.000000e-08)

---- Minimization of quantum number:    15  [ +0.3000000 +0.0000000 +0.0000000 ]  0.024096386 ----
BandDavidson: Iter:   0  Eband: -0.019068172180586
BandDavidson: Iter:   1  Eband: -0.035021906856669  dEband: -1.595373e-02  t[s]:      6.82
BandDavidson: Iter:   2  Eband: -0.037101134227355  dEband: -2.079227e-03  t[s]:      6.84
BandDavidson: Iter:   3  Eband: -0.037634772894460  dEband: -5.336387e-04  t[s]:      6.85
BandDavidson: Iter:   4  Eband: -0.037722678965420  dEband: -8.790607e-05  t[s]:      6.87
BandDavidson: Iter:   5  Eband: -0.037739601432102  dEband: -1.692247e-05  t[s]:      6.89
BandDavidson: Iter:   6  Eband: -0.037745163000625  dEband: -5.561569e-06  t[s]:      6.90
BandDavidson: Iter:   7  Eband: -0.037747394394924  dEband: -2.231394e-06  t[s]:      6.92
BandDavidson: Iter:   8  Eband: -0.037748369153311  dEband: -9.747584e-07  t[s]:      6.94
BandDavidson: Iter:   9  Eband: -0.037748807264158  dEband: -4.381108e-07  t[s]:      6.95
BandDavidson: Iter:  10  Eband: -0.037749009014904  dEband: -2.017507e-07  t[s]:      6.97
BandDavidson: Iter:  11  Eband: -0.037749102491477  dEband: -9.347657e-08  t[s]:      6.98
BandDavidson: Iter:  12  Eband: -0.037749146524324  dEband: -4.403285e-08  t[s]:      7.00
BandDavidson: Iter:  13  Eband: -0.037749167363377  dEband: -2.083905e-08  t[s]:      7.02
BandDavidson: Iter:  14  Eband: -0.037749177346265  dEband: -9.982889e-09  t[s]:      7.03
BandDavidson: Converged (dEband<1.000000e-08)

---- Minimization of quantum number:    16  [ +0.3200000 +0.0000000 +0.0000000 ]  0.024096386 ----
BandDavidson: Iter:   0  Eband: -0.019542494003913
BandDavidson: Iter:   1  Eband: -0.034764018212936  dEband: -1.522152e-02  t[s]:      7.06
BandDavidson: Iter:   2  Eband: -0.037466967309921  dEband: -2.702949e-03  t[s]:      7.08
BandDavidson: Iter:   3  Eband: -0.037666600887172  dEband: -1.996336e-04  t[s]:      7.09
BandDavidson: Iter:   4  Eband: -0.037693486434781  dEband: -2.688555e-05  t[s]:      7.11
BandDavidson: Iter:   5  Eband: -0.037700020798954  dEband: -6.534364e-06  t[s]:      7.13
BandDavidson: Iter:   6  Eband: -0.037702006150211  dEband: -1.985351e-06  t[s]:      7.14
BandDavidson: Iter:   7  Eband: -0.037702677695761  dEband: -6.715456e-07  t[s]:      7.16
BandDavidson: Iter:   8  Eband: -0.037702930416842  dEband: -2.527211e-07  t[s]:      7.18
BandDavidson: Iter:   9  Eband: -0.037703030820237  dEband: -1.004034e-07  t[s]:      7.19
BandDavidson: Iter:  10  Eband: -0.037703072489338  dEband: -4.166910e-08  t[s]:      7.21
BandDavidson: Iter:  11  Eband: -0.037703090189118  dEband: -1.769978e-08  t[s]:      7.23
BandDavidson: Iter:  12  Eband: -0.037703097843682  dEband: -7.654564e-09  t[s]:      7.24
BandDavidson: Converged (dEband<1.000000e-08)

---- Minimization of quantum number:    17  [ +0.3400000 +0.0000000 +0.0000000 ]  0.024096386 ----
BandDavidson: Iter:   0  Eband: -0.018111323851258
BandDavidson: Iter:   1  Eband: -0.034529517429953  dEband: -1.641819e-02  t[s]:      7.27
BandDavidson: Iter:   2  Eband: -0.036899342232397  dEband: -2.369825e-03  t[s]:      7.28
BandDavidson: Iter:   3  Eband: -0.037450193006919  dEband: -5.508508e-04  t[s]:      7.30
BandDavidson: Iter:   4  Eband: -0.037534990312089  dEband: -8.479731e-05  t[s]:      7.32
BandDavidson: Iter:   5  Eband: -0.037553021485343  dEband: -1.803117e-05  t[s]:      7.34
BandDavidson: Iter:   6  Eband: -0.037559595892190  dEband: -6.574407e-06  t[s]:      7.35
BandDavidson: Iter:   7  Eband: -0.037562408893565  dEband: -2.813001e-06  t[s]:      7.37
BandDavidson: Iter:   8  Eband: -0.037563681165253  dEband: -1.272272e-06  t[s]:      7.39
BandDavidson: Iter:   9  Eband: -0.037564268753350  dEband: -5.875881e-07  t[s]:      7.40
BandDavidson: Iter:  10  Eband: -0.037564539944462  dEband: -2.711911e-07  t[s]:      7.42
BandDavidson: Iter:  11  Eband: -0.037564665550005  dEband: -1.256055e-07  t[s]:      7.44
BandDavidson: Iter:  12  Eband: -0.037564723786141  dEband: -5.823614e-08  t[s]:      7.45
BandDavidson: Iter:  13  Eband: -0.037564750527623  dEband: -2.674148e-08  t[s]:      7.47
BandDavidson: Iter:  14  Eband: -0.037564762875900  dEband: -1.234828e-08  t[s]:      7.49
BandDavidson: Iter:  15  Eband: -0.037564768558645  dEband: -5.682745e-09  t[s]:      7.50
BandDavidson: Converged (dEband<1.000000e-08)

---- Minimization of quantum number:    18  [ +0.3600000 +0.0000000 +0.0000000 ]  0.024096386 ----
BandDavidson: Iter:   0  Eband: -0.019151080838250
BandDavidson: Iter:   1  Eband: -0.034199823718127  dEband: -1.504874e-02  t[s]:      7.53
BandDavidson: Iter:   2  Eband: -0.036713201989110  dEband: -2.513378e-03  t[s]:      7.55
BandDavidson: Iter:   3  Eband: -0.037265941305008  dEband: -5.527393e-04  t[s]:      7.56
BandDavidson: Iter:   4  Eband: -0.037317220653613  dEband: -5.127935e-05  t[s]:      7.58
BandDavidson: Iter:   5  Eband: -0.037324829212662  dEband: -7.608559e-06  t[s]:      7.60
BandDavidson: Iter:   6  Eband: -0.037327053461352  dEband: -2.224249e-06  t[s]:      7.61
BandDavidson: Iter:   7  Eband: -0.037327886288748  dEband: -8.328274e-07  t[s]:      7.63
BandDavidson: Iter:   8  Eband: -0.037328235243462  dEband: -3.489547e-07  t[s]:      7.65
BandDavidson: Iter:   9  Eband: -0.037328386791918  dEband: -1.515485e-07  t[s]:      7.66
BandDavidson: Iter:  10  Eband: -0.037328455907345  dEband: -6.911543e-08  t[s]:      7.68
BandDavidson: Iter:  11  Eband: -0.037328487351675  dEband: -3.144433e-08  t[s]:      7.70
BandDavidson: Iter:  12  Eband: -0.037328502173310  dEband: -1.482164e-08  t[s]:      7.71
BandDavidson: Iter:  13  Eband: -0.037328508947821  dEband: -6.774511e-09  t[s]:      7.73
BandDavidson: Converged (dEband<1.000000e-08)

---- Minimization of quantum number:    19  [ +0.3800000 +0.0000000 +0.0000000 ]  0.024096386 ----
BandDavidson: Iter:   0  Eband: -0.016846876770104
BandDavidson: Iter:   1  Eband: -0.032456415718900  dEband: -1.560954e-02  t[s]:      7.75
BandDavidson: Iter:   2  Eband: -0.035554928320345  dEband: -3.098513e-03  t[s]:      7.77
BandDavidson: Iter:   3  Eband: -0.036272654302022  dEband: -7.177260e-04  t[s]:      7.79
BandDavidson: Iter:   4  Eband: -0.036839051958404  dEband: -5.663977e-04  t[s]:      7.80
BandDavidson: Iter:   5  Eband: -0.036959115615505  dEband: -1.200637e-04  t[s]:      7.82
BandDavidson: Iter:   6  Eband: -0.036982649082398  dEband: -2.353347e-05  t[s]:      7.83
BandDavidson: Iter:   7  Eband: -0.036988434808949  dEband: -5.785727e-06  t[s]:      7.85
BandDavidson: Iter:   8  Eband: -0.036990066492499  dEband: -1.631684e-06  t[s]:      7.87
BandDavidson: Iter:   9  Eband: -0.036990569722010  dEband: -5.032295e-07  t[s]:      7.88
BandDavidson: Iter:  10  Eband: -0.036990745997267  dEband: -1.762753e-07  t[s]:      7.90
BandDavidson: Iter:  11  Eband: -0.036990813313533  dEband: -6.731627e-08  t[s]:      7.92
BandDavidson: Iter:  12  Eband: -0.036990841321301  dEband: -2.800777e-08  t[s]:      7.94
BandDavidson: Iter:  13  Eband: -0.036990853638560  dEband: -1.231726e-08  t[s]:      7.95
BandDavidson: Iter:  14  Eband: -0.036990859250719  dEband: -5.612159e-09  t[s]:      7.97
BandDavidson: Converged (dEband<1.000000e-08)

---- Minimization of quantum number:    20  [ +0.4000000 +0.0000000 +0.0000000 ]  0.024096386 ----
BandDavidson: Iter:   0  Eband: -0.018710677127656
BandDavidson: Iter:   1  Eband: -0.033386322830457  dEband: -1.467565e-02  t[s]:      7.99
BandDavidson: Iter:   2  Eband: -0.035724665066314  dEband: -2.338342e-03  t[s]:      8.01
BandDavidson: Iter:   3  Eband: -0.036424635900389  dEband: -6.999708e-04  t[s]:      8.03
BandDavidson: Iter:   4  Eband: -0.036526347172883  dEband: -1.017113e-04  t[s]:      8.05
BandDavidson: Iter:   5  Eband: -0.036542745451786  dEband: -1.639828e-05  t[s]:      8.06
BandDavidson: Iter:   6  Eband: -0.036546850120915  dEband: -4.104669e-06  t[s]:      8.08
BandDavidson: Iter:   7  Eband: -0.036548176701642  dEband: -1.326581e-06  t[s]:      8.10
BandDavidson: Iter:   8  Eband: -0.036548674062791  dEband: -4.973611e-07  t[s]:      8.11
BandDavidson: Iter:   9  Eband: -0.036548877438585  dEband: -2.033758e-07  t[s]:      8.13
BandDavidson: Iter:  10  Eband: -0.036548965979155  dEband: -8.854057e-08  t[s]:      8.15
BandDavidson: Iter:  11  Eband: -0.036549006215143  dEband: -4.023599e-08  t[s]:      8.17
BandDavidson: Iter:  12  Eband: -0.036549024955377  dEband: -1.874023e-08  t[s]:      8.19
BandDavidson: Iter:  13  Eband: -0.036549033920467  dEband: -8.965090e-09  t[s]:      8.20
BandDavidson: Converged (dEband<1.000000e-08)

---- Minimization of quantum number:    21  [ +0.4200000 +0.0000000 +0.0000000 ]  0.024096386 ----
BandDavidson: Iter:   0  Eband: -0.016697822784698
BandDavidson: Iter:   1  Eband: -0.030370744288581  dEband: -1.367292e-02  t[s]:      8.23
BandDavidson: Iter:   2  Eband: -0.033168198218741  dEband: -2.797454e-03  t[s]:      8.25
BandDavidson: Iter:   3  Eband: -0.034104349990829  dEband: -9.361518e-04  t[s]:      8.26
BandDavidson: Iter:   4  Eband: -0.034414925899465  dEband: -3.105759e-04  t[s]:      8.28
BandDavidson: Iter:   5  Eband: -0.035019591811301  dEband: -6.046659e-04  t[s]:      8.30
BandDavidson: Iter:   6  Eband: -0.035524229480785  dEband: -5.046377e-04  t[s]:      8.31
BandDavidson: Iter:   7  Eband: -0.035790738162821  dEband: -2.665087e-04  t[s]:      8.33
BandDavidson: Iter:   8  Eband: -0.035910585429416  dEband: -1.198473e-04  t[s]:      8.35
BandDavidson: Iter:   9  Eband: -0.035961429131609  dEband: -5.084370e-05  t[s]:      8.36
BandDavidson: Iter:  10  Eband: -0.035983345185930  dEband: -2.191605e-05  t[s]:      8.38
BandDavidson: Iter:  11  Eband: -0.035992998674434  dEband: -9.653489e-06  t[s]:      8.39
BandDavidson: Iter:  12  Eband: -0.035997433578874  dEband: -4.434904e-06  t[s]:      8.41
BandDavidson: Iter:  13  Eband: -0.035999531338671  dEband: -2.097760e-06  t[s]:      8.43
BandDavidson: Iter:  14  Eband: -0.036000556816136  dEband: -1.025477e-06  t[s]:      8.44
BandDavidson: Iter:  15  Eband: -0.036001064539512  dEband: -5.077234e-07  t[s]:      8.46
BandDavidson: Iter:  16  Eband: -0.036001324100067  dEband: -2.595606e-07  t[s]:      8.48
BandDavidson: Iter:  17  Eband: -0.036001458794858  dEband: -1.346948e-07  t[s]:      8.49
BandDavidson: Iter:  18  Eband: -0.036001529568355  dEband: -7.077350e-08  t[s]:      8.51
BandDavidson: Iter:  19  Eband: -0.036001566806786  dEband: -3.723843e-08  t[s]:      8.53
BandDavidson: Iter:  20  Eband: -0.036001586653472  dEband: -1.984669e-08  t[s]:      8.54
BandDavidson: Iter:  21  Eband: -0.036001597251607  dEband: -1.059813e-08  t[s]:      8.56
BandDavidson: Iter:  22  Eband: -0.036001603014017  dEband: -5.762410e-09  t[s]:      8.57
BandDavidson: Converged (dEband<1.000000e-08)

---- Minimization of quantum number:    22  [ +0.4400000 +0.0000000 +0.0000000 ]  0.024096386 ----
BandDavidson: Iter:   0  Eband: -0.017737948014085
BandDavidson: Iter:   1  Eband: -0.031809379784282  dEband: -1.407143e-02  t[s]:      8.59
BandDavidson: Iter:   2  Eband: -0.034577468902061  dEband: -2.768089e-03  t[s]:      8.61
BandDavidson: Iter:   3  Eband: -0.035167961348968  dEband: -5.904924e-04  t[s]:      8.63
BandDavidson: Iter:   4  Eband: -0.035291057177421  dEband: -1.230958e-04  t[s]:      8.64
BandDavidson: Iter:   5  Eband: -0.035327186046277  dEband: -3.612887e-05  t[s]:      8.66
BandDavidson: Iter:   6  Eband: -0.035340553701363  dEband: -1.336766e-05  t[s]:      8.68
BandDavidson: Iter:   7  Eband: -0.035345978364834  dEband: -5.424663e-06  t[s]:      8.69
BandDavidson: Iter:   8  Eband: -0.035348260868934  dEband: -2.282504e-06  t[s]:      8.71
BandDavidson: Iter:   9  Eband: -0.035349250171248  dEband: -9.893023e-07  t[s]:      8.73
BandDavidson: Iter:  10  Eband: -0.035349685078520  dEband: -4.349073e-07  t[s]:      8.75
BandDavidson: Iter:  11  Eband: -0.035349879013602  dEband: -1.939351e-07  t[s]:      8.76
BandDavidson: Iter:  12  Eband: -0.035349967869442  dEband: -8.885584e-08  t[s]:      8.78
BandDavidson: Iter:  13  Eband: -0.035350008754213  dEband: -4.088477e-08  t[s]:      8.79
BandDavidson: Iter:  14  Eband: -0.035350028023265  dEband: -1.926905e-08  t[s]:      8.81
BandDavidson: Iter:  15  Eband: -0.035350037131200  dEband: -9.107935e-09  t[s]:      8.83
BandDavidson: Converged (dEband<1.000000e-08)

---- Minimization of quantum number:    23  [ +0.4600000 +0.0000000 +0.0000000 ]  0.024096386 ----
BandDavidson: Iter:   0  Eband: -0.016531631171559
BandDavidson: Iter:   1  Eband: -0.031192616682120  dEband: -1.466099e-02  t[s]:      8.85
BandDavidson: Iter:   2  Eband: -0.033989693188171  dEband: -2.797077e-03  t[s]:      8.87
BandDavidson: Iter:   3  Eband: -0.034391022759372  dEband: -4.013296e-04  t[s]:      8.89
BandDavidson: Iter:   4  Eband: -0.034455423770599  dEband: -6.440101e-05  t[s]:      8.90
BandDavidson: Iter:   5  Eband: -0.034469426375852  dEband: -1.400261e-05  t[s]:      8.92
BandDavidson: Iter:   6  Eband: -0.034473056171181  dEband: -3.629795e-06  t[s]:      8.94
BandDavidson: Iter:   7  Eband: -0.034474157067834  dEband: -1.100897e-06  t[s]:      8.95
BandDavidson: Iter:   8  Eband: -0.034474573397222  dEband: -4.163294e-07  t[s]:      8.97
BandDavidson: Iter:   9  Eband: -0.034474836556419  dEband: -2.631592e-07  t[s]:      8.99
BandDavidson: Iter:  10  Eband: -0.034475342418393  dEband: -5.058620e-07  t[s]:      9.00
BandDavidson: Iter:  11  Eband: -0.034490708120043  dEband: -1.536570e-05  t[s]:      9.02
BandDavidson: Iter:  12  Eband: -0.034564477936505  dEband: -7.376982e-05  t[s]:      9.04
BandDavidson: Iter:  13  Eband: -0.034585506026471  dEband: -2.102809e-05  t[s]:      9.06
BandDavidson: Iter:  14  Eband: -0.034592877767616  dEband: -7.371741e-06  t[s]:      9.07
BandDavidson: Iter:  15  Eband: -0.034596526964840  dEband: -3.649197e-06  t[s]:      9.09
BandDavidson: Iter:  16  Eband: -0.034598392413491  dEband: -1.865449e-06  t[s]:      9.10
BandDavidson: Iter:  17  Eband: -0.034599355728436  dEband: -9.633149e-07  t[s]:      9.12
BandDavidson: Iter:  18  Eband: -0.034599722475362  dEband: -3.667469e-07  t[s]:      9.13
BandDavidson: Iter:  19  Eband: -0.034599891523494  dEband: -1.690481e-07  t[s]:      9.15
BandDavidson: Iter:  20  Eband: -0.034599979109599  dEband: -8.758610e-08  t[s]:      9.16
BandDavidson: Iter:  21  Eband: -0.034600026201861  dEband: -4.709226e-08  t[s]:      9.18
BandDavidson: Iter:  22  Eband: -0.034600051316574  dEband: -2.511471e-08  t[s]:      9.19
BandDavidson: Iter:  23  Eband: -0.034600064959436  dEband: -1.364286e-08  t[s]:      9.20
BandDavidson: Iter:  24  Eband: -0.034600072235894  dEband: -7.276458e-09  t[s]:      9.22
BandDavidson: Converged (dEband<1.000000e-08)

---- Minimization of quantum number:    24  [ +0.4800000 +0.0000000 +0.0000000 ]  0.024096386 ----
BandDavidson: Iter:   0  Eband: -0.017795903945823
BandDavidson: Iter:   1  Eband: -0.030339199597705  dEband: -1.254330e-02  t[s]:      9.24
BandDavidson: Iter:   2  Eband: -0.033600659003851  dEband: -3.261459e-03  t[s]:      9.26
BandDavidson: Iter:   3  Eband: -0.034439322965324  dEband: -8.386640e-04  t[s]:      9.27
BandDavidson: Iter:   4  Eband: -0.034599572689330  dEband: -1.602497e-04  t[s]:      9.29
BandDavidson: Iter:   5  Eband: -0.034629165686163  dEband: -2.959300e-05  t[s]:      9.31
BandDavidson: Iter:   6  Eband: -0.034635711191687  dEband: -6.545506e-06  t[s]:      9.33
BandDavidson: Iter:   7  Eband: -0.034637313783386  dEband: -1.602592e-06  t[s]:      9.35
BandDavidson: Iter:   8  Eband: -0.034637743734377  dEband: -4.299510e-07  t[s]:      9.36
BandDavidson: Iter:   9  Eband: -0.034637864635615  dEband: -1.209012e-07  t[s]:      9.38
BandDavidson: Iter:  10  Eband: -0.034637901289082  dEband: -3.665347e-08  t[s]:      9.40
BandDavidson: Iter:  11  Eband: -0.034637912865649  dEband: -1.157657e-08  t[s]:      9.41
BandDavidson: Iter:  12  Eband: -0.034637916616164  dEband: -3.750516e-09  t[s]:      9.43
BandDavidson: Converged (dEband<1.000000e-08)

---- Minimization of quantum number:    25  [ +0.5000000 +0.0000000 +0.0000000 ]  0.024096386 ----
BandDavidson: Iter:   0  Eband: -0.018949435900838
BandDavidson: Iter:   1  Eband: -0.031384540503619  dEband: -1.243510e-02  t[s]:      9.45
BandDavidson: Iter:   2  Eband: -0.033915147536169  dEband: -2.530607e-03  t[s]:      9.47
BandDavidson: Iter:   3  Eband: -0.034557458464798  dEband: -6.423109e-04  t[s]:      9.48
BandDavidson: Iter:   4  Eband: -0.034667684255261  dEband: -1.102258e-04  t[s]:      9.50
BandDavidson: Iter:   5  Eband: -0.034687071876012  dEband: -1.938762e-05  t[s]:      9.52
BandDavidson: Iter:   6  Eband: -0.034691465507652  dEband: -4.393632e-06  t[s]:      9.53
BandDavidson: Iter:   7  Eband: -0.034692625200256  dEband: -1.159693e-06  t[s]:      9.55
BandDavidson: Iter:   8  Eband: -0.034692953353601  dEband: -3.281533e-07  t[s]:      9.57
BandDavidson: Iter:   9  Eband: -0.034693054196528  dEband: -1.008429e-07  t[s]:      9.58
BandDavidson: Iter:  10  Eband: -0.034693087736149  dEband: -3.353962e-08  t[s]:      9.60
BandDavidson: Iter:  11  Eband: -0.034693099825895  dEband: -1.208975e-08  t[s]:      9.62
BandDavidson: Iter:  12  Eband: -0.034693104467800  dEband: -4.641905e-09  t[s]:      9.64
BandDavidson: Converged (dEband<1.000000e-08)

---- Minimization of quantum number:    26  [ -0.4912279 -0.0175437 +0.0000000 ]  0.024096386 ----
BandDavidson: Iter:   0  Eband: -0.019146595579076
BandDavidson: Iter:   1  Eband: -0.030825157582861  dEband: -1.167856e-02  t[s]:      9.66
BandDavidson: Iter:   2  Eband: -0.033795158574944  dEband: -2.970001e-03  t[s]:      9.68
BandDavidson: Iter:   3  Eband: -0.034489946670242  dEband: -6.947881e-04  t[s]:      9.70
BandDavidson: Iter:   4  Eband: -0.034626925432718  dEband: -1.369788e-04  t[s]:      9.71
BandDavidson: Iter:   5  Eband: -0.034653069730805  dEband: -2.614430e-05  t[s]:      9.73
BandDavidson: Iter:   6  Eband: -0.034658648866963  dEband: -5.579136e-06  t[s]:      9.75
BandDavidson: Iter:   7  Eband: -0.034659999887756  dEband: -1.351021e-06  t[s]:      9.76
BandDavidson: Iter:   8  Eband: -0.034660383871094  dEband: -3.839833e-07  t[s]:      9.78
BandDavidson: Iter:   9  Eband: -0.034660514052654  dEband: -1.301816e-07  t[s]:      9.79
BandDavidson: Iter:  10  Eband: -0.034660565032117  dEband: -5.097946e-08  t[s]:      9.81
BandDavidson: Iter:  11  Eband: -0.034660586564021  dEband: -2.153190e-08  t[s]:      9.83
BandDavidson: Iter:  12  Eband: -0.034660596024902  dEband: -9.460881e-09  t[s]:      9.84
BandDavidson: Converged (dEband<1.000000e-08)

---- Minimization of quantum number:    27  [ -0.4824558 -0.0350874 +0.0000000 ]  0.024096386 ----
BandDavidson: Iter:   0  Eband: -0.016784185696548
BandDavidson: Iter:   1  Eband: -0.030009541705145  dEband: -1.322536e-02  t[s]:      9.87
BandDavidson: Iter:   2  Eband: -0.033610215465653  dEband: -3.600674e-03  t[s]:      9.89
BandDavidson: Iter:   3  Eband: -0.034376831966880  dEband: -7.666165e-04  t[s]:      9.90
BandDavidson: Iter:   4  Eband: -0.034523481428175  dEband: -1.466495e-04  t[s]:      9.92
BandDavidson: Iter:   5  Eband: -0.034552542213337  dEband: -2.906079e-05  t[s]:      9.94
BandDavidson: Iter:   6  Eband: -0.034559764550508  dEband: -7.222337e-06  t[s]:      9.95
BandDavidson: Iter:   7  Eband: -0.034561889296570  dEband: -2.124746e-06  t[s]:      9.97
BandDavidson: Iter:   8  Eband: -0.034562681890505  dEband: -7.925939e-07  t[s]:      9.98
BandDavidson: Iter:   9  Eband: -0.034563010500629  dEband: -3.286101e-07  t[s]:     10.00
BandDavidson: Iter:  10  Eband: -0.034563160283925  dEband: -1.497833e-07  t[s]:     10.02
BandDavidson: Iter:  11  Eband: -0.034563231720829  dEband: -7.143690e-08  t[s]:     10.03
BandDavidson: Iter:  12  Eband: -0.034563266599894  dEband: -3.487907e-08  t[s]:     10.05
BandDavidson: Iter:  13  Eband: -0.034563284119950  dEband: -1.752006e-08  t[s]:     10.06
BandDavidson: Iter:  14  Eband: -0.034563292850294  dEband: -8.730344e-09  t[s]:     10.08
BandDavidson: Converged (dEband<1.000000e-08)

---- Minimization of quantum number:    28  [ -0.4736837 -0.0526311 +0.0000000 ]  0.024096386 ----
BandDavidson: Iter:   0  Eband: -0.017395205081834
BandDavidson: Iter:   1  Eband: -0.030311722132530  dEband: -1.291652e-02  t[s]:     10.10
BandDavidson: Iter:   2  Eband: -0.033570907952115  dEband: -3.259186e-03  t[s]:     10.12
BandDavidson: Iter:   3  Eband: -0.034247540807503  dEband: -6.766329e-04  t[s]:     10.14
BandDavidson: Iter:   4  Eband: -0.034365990415606  dEband: -1.184496e-04  t[s]:     10.15
BandDavidson: Iter:   5  Eband: -0.034389806964134  dEband: -2.381655e-05  t[s]:     10.17
BandDavidson: Iter:   6  Eband: -0.034397033667827  dEband: -7.226704e-06  t[s]:     10.19
BandDavidson: Iter:   7  Eband: -0.034399689158341  dEband: -2.655491e-06  t[s]:     10.20
BandDavidson: Iter:   8  Eband: -0.034400805400436  dEband: -1.116242e-06  t[s]:     10.22
BandDavidson: Iter:   9  Eband: -0.034401297003000  dEband: -4.916026e-07  t[s]:     10.24
BandDavidson: Iter:  10  Eband: -0.034401527294139  dEband: -2.302911e-07  t[s]:     10.25
BandDavidson: Iter:  11  Eband: -0.034401636172332  dEband: -1.088782e-07  t[s]:     10.27
BandDavidson: Iter:  12  Eband: -0.034401689147134  dEband: -5.297480e-08  t[s]:     10.29
BandDavidson: Iter:  13  Eband: -0.034401715312248  dEband: -2.616511e-08  t[s]:     10.31
BandDavidson: Iter:  14  Eband: -0.034401728226981  dEband: -1.291473e-08  t[s]:     10.32
BandDavidson: Iter:  15  Eband: -0.034401734738014  dEband: -6.511033e-09  t[s]:     10.34
BandDavidson: Converged (dEband<1.000000e-08)

---- Minimization of quantum number:    29  [ -0.4649116 -0.0701747 +0.0000000 ]  0.024096386 ----
BandDavidson: Iter:   0  Eband: -0.017661085636406
BandDavidson: Iter:   1  Eband: -0.029915627440481  dEband: -1.225454e-02  t[s]:     10.36
BandDavidson: Iter:   2  Eband: -0.033031537313470  dEband: -3.115910e-03  t[s]:     10.38
BandDavidson: Iter:   3  Eband: -0.033905577844790  dEband: -8.740405e-04  t[s]:     10.40
BandDavidson: Iter:   4  Eband: -0.034112044601818  dEband: -2.064668e-04  t[s]:     10.41
BandDavidson: Iter:   5  Eband: -0.034157006589335  dEband: -4.496199e-05  t[s]:     10.43
BandDavidson: Iter:   6  Eband: -0.034169617162215  dEband: -1.261057e-05  t[s]:     10.45
BandDavidson: Iter:   7  Eband: -0.034173922303291  dEband: -4.305141e-06  t[s]:     10.47
BandDavidson: Iter:   8  Eband: -0.034175673755134  dEband: -1.751452e-06  t[s]:     10.48
BandDavidson: Iter:   9  Eband: -0.034176449701025  dEband: -7.759459e-07  t[s]:     10.50
BandDavidson: Iter:  10  Eband: -0.034176819534297  dEband: -3.698333e-07  t[s]:     10.52
BandDavidson: Iter:  11  Eband: -0.034177000016157  dEband: -1.804819e-07  t[s]:     10.53
BandDavidson: Iter:  12  Eband: -0.034177090822378  dEband: -9.080622e-08  t[s]:     10.55
BandDavidson: Iter:  13  Eband: -0.034177137022195  dEband: -4.619982e-08  t[s]:     10.56
BandDavidson: Iter:  14  Eband: -0.034177160642524  dEband: -2.362033e-08  t[s]:     10.58
BandDavidson: Iter:  15  Eband: -0.034177172822938  dEband: -1.218041e-08  t[s]:     10.59
BandDavidson: Iter:  16  Eband: -0.034177179094125  dEband: -6.271187e-09  t[s]:     10.61
BandDavidson: Converged (dEband<1.000000e-08)

---- Minimization of quantum number:    30  [ -0.4561395 -0.0877184 +0.0000000 ]  0.024096386 ----
BandDavidson: Iter:   0  Eband: -0.018795393684728
BandDavidson: Iter:   1  Eband: -0.030506040485695  dEband: -1.171065e-02  t[s]:     10.64
BandDavidson: Iter:   2  Eband: -0.033040234534753  dEband: -2.534194e-03  t[s]:     10.65
BandDavidson: Iter:   3  Eband: -0.033694348998999  dEband: -6.541145e-04  t[s]:     10.67
BandDavidson: Iter:   4  Eband: -0.033835485263226  dEband: -1.411363e-04  t[s]:     10.69
BandDavidson: Iter:   5  Eband: -0.033871778814357  dEband: -3.629355e-05  t[s]:     10.70
BandDavidson: Iter:   6  Eband: -0.033883595396730  dEband: -1.181658e-05  t[s]:     10.72
BandDavidson: Iter:   7  Eband: -0.033888046022259  dEband: -4.450626e-06  t[s]:     10.74
BandDavidson: Iter:   8  Eband: -0.033889778003498  dEband: -1.731981e-06  t[s]:     10.75
BandDavidson: Iter:   9  Eband: -0.033890539987336  dEband: -7.619838e-07  t[s]:     10.77
BandDavidson: Iter:  10  Eband: -0.033890882955116  dEband: -3.429678e-07  t[s]:     10.79
BandDavidson: Iter:  11  Eband: -0.033891045356466  dEband: -1.624013e-07  t[s]:     10.81
BandDavidson: Iter:  12  Eband: -0.033891122970043  dEband: -7.761358e-08  t[s]:     10.82
[...]
BandDavidson: Iter:  25  Eband: -0.036770702429971  dEband: -3.760159e-06  t[s]:     29.93
BandDavidson: Iter:  26  Eband: -0.036774004562026  dEband: -3.302132e-06  t[s]:     29.95
BandDavidson: Iter:  27  Eband: -0.036776911300749  dEband: -2.906739e-06  t[s]:     29.96
BandDavidson: Iter:  28  Eband: -0.036779461551370  dEband: -2.550251e-06  t[s]:     29.98
BandDavidson: Iter:  29  Eband: -0.036781651160469  dEband: -2.189609e-06  t[s]:     29.99
BandDavidson: Iter:  30  Eband: -0.036783489316183  dEband: -1.838156e-06  t[s]:     30.00
BandDavidson: Iter:  31  Eband: -0.036784985241867  dEband: -1.495926e-06  t[s]:     30.02
BandDavidson: Iter:  32  Eband: -0.036786233042242  dEband: -1.247800e-06  t[s]:     30.03
BandDavidson: Iter:  33  Eband: -0.036787279244268  dEband: -1.046202e-06  t[s]:     30.05
BandDavidson: Iter:  34  Eband: -0.036788181307390  dEband: -9.020631e-07  t[s]:     30.06
BandDavidson: Iter:  35  Eband: -0.036788958659788  dEband: -7.773524e-07  t[s]:     30.07
BandDavidson: Iter:  36  Eband: -0.036789637007099  dEband: -6.783473e-07  t[s]:     30.09
BandDavidson: Iter:  37  Eband: -0.036790227983784  dEband: -5.909767e-07  t[s]:     30.10
BandDavidson: Iter:  38  Eband: -0.036790746364932  dEband: -5.183811e-07  t[s]:     30.11
BandDavidson: Iter:  39  Eband: -0.036791200667703  dEband: -4.543028e-07  t[s]:     30.13
BandDavidson: Iter:  40  Eband: -0.036791600323698  dEband: -3.996560e-07  t[s]:     30.14
BandDavidson: Iter:  41  Eband: -0.036791951727106  dEband: -3.514034e-07  t[s]:     30.16
BandDavidson: Iter:  42  Eband: -0.036792261406123  dEband: -3.096790e-07  t[s]:     30.17
BandDavidson: Iter:  43  Eband: -0.036792534207350  dEband: -2.728012e-07  t[s]:     30.18
BandDavidson: Iter:  44  Eband: -0.036792774880589  dEband: -2.406732e-07  t[s]:     30.20
BandDavidson: Iter:  45  Eband: -0.036792987143097  dEband: -2.122625e-07  t[s]:     30.21
BandDavidson: Iter:  46  Eband: -0.036793174540544  dEband: -1.873974e-07  t[s]:     30.22
BandDavidson: Iter:  47  Eband: -0.036793339953669  dEband: -1.654131e-07  t[s]:     30.24
BandDavidson: Iter:  48  Eband: -0.036793486059872  dEband: -1.461062e-07  t[s]:     30.25
BandDavidson: Iter:  49  Eband: -0.036793615105901  dEband: -1.290460e-07  t[s]:     30.26
BandDavidson: Iter:  50  Eband: -0.036793729126114  dEband: -1.140202e-07  t[s]:     30.28
BandDavidson: Iter:  51  Eband: -0.036793829877455  dEband: -1.007513e-07  t[s]:     30.29
BandDavidson: Iter:  52  Eband: -0.036793918915050  dEband: -8.903759e-08  t[s]:     30.30
BandDavidson: Iter:  53  Eband: -0.036793997613612  dEband: -7.869856e-08  t[s]:     30.32
BandDavidson: Iter:  54  Eband: -0.036794067170042  dEband: -6.955643e-08  t[s]:     30.33
BandDavidson: Iter:  55  Eband: -0.036794128659762  dEband: -6.148972e-08  t[s]:     30.34
BandDavidson: Iter:  56  Eband: -0.036794183009936  dEband: -5.435017e-08  t[s]:     30.36
BandDavidson: Iter:  57  Eband: -0.036794231061388  dEband: -4.805145e-08  t[s]:     30.37
BandDavidson: Iter:  58  Eband: -0.036794273535892  dEband: -4.247450e-08  t[s]:     30.39
BandDavidson: Iter:  59  Eband: -0.036794311090268  dEband: -3.755438e-08  t[s]:     30.40
BandDavidson: Iter:  60  Eband: -0.036794344288101  dEband: -3.319783e-08  t[s]:     30.41
BandDavidson: Iter:  61  Eband: -0.036794373641939  dEband: -2.935384e-08  t[s]:     30.43
BandDavidson: Iter:  62  Eband: -0.036794399592497  dEband: -2.595056e-08  t[s]:     30.44
BandDavidson: Iter:  63  Eband: -0.036794422539394  dEband: -2.294690e-08  t[s]:     30.46
BandDavidson: Iter:  64  Eband: -0.036794442827471  dEband: -2.028808e-08  t[s]:     30.48
BandDavidson: Iter:  65  Eband: -0.036794460768173  dEband: -1.794070e-08  t[s]:     30.49
BandDavidson: Iter:  66  Eband: -0.036794476631375  dEband: -1.586320e-08  t[s]:     30.50
BandDavidson: Iter:  67  Eband: -0.036794490659825  dEband: -1.402845e-08  t[s]:     30.52
BandDavidson: Iter:  68  Eband: -0.036794503064728  dEband: -1.240490e-08  t[s]:     30.54
BandDavidson: Iter:  69  Eband: -0.036794514035359  dEband: -1.097063e-08  t[s]:     30.55
BandDavidson: Iter:  70  Eband: -0.036794523736995  dEband: -9.701636e-09  t[s]:     30.56
BandDavidson: Converged (dEband<1.000000e-08)

---- Minimization of quantum number:    73  [ +0.1578955 -0.0789466 +0.0000000 ]  0.024096386 ----
BandDavidson: Iter:   0  Eband: -0.021912624599724
BandDavidson: Iter:   1  Eband: -0.034362345434466  dEband: -1.244972e-02  t[s]:     30.59
BandDavidson: Iter:   2  Eband: -0.035568509457883  dEband: -1.206164e-03  t[s]:     30.60
BandDavidson: Iter:   3  Eband: -0.035683342524619  dEband: -1.148331e-04  t[s]:     30.62
BandDavidson: Iter:   4  Eband: -0.035762899275852  dEband: -7.955675e-05  t[s]:     30.64
BandDavidson: Iter:   5  Eband: -0.036784775284295  dEband: -1.021876e-03  t[s]:     30.65
BandDavidson: Iter:   6  Eband: -0.036850811643978  dEband: -6.603636e-05  t[s]:     30.67
BandDavidson: Iter:   7  Eband: -0.036877665155480  dEband: -2.685351e-05  t[s]:     30.69
BandDavidson: Iter:   8  Eband: -0.036897843300581  dEband: -2.017815e-05  t[s]:     30.70
BandDavidson: Iter:   9  Eband: -0.036915000320410  dEband: -1.715702e-05  t[s]:     30.72
BandDavidson: Iter:  10  Eband: -0.036928728655870  dEband: -1.372834e-05  t[s]:     30.74
BandDavidson: Iter:  11  Eband: -0.036939815636550  dEband: -1.108698e-05  t[s]:     30.76
BandDavidson: Iter:  12  Eband: -0.036949025579335  dEband: -9.209943e-06  t[s]:     30.77
BandDavidson: Iter:  13  Eband: -0.036956618083893  dEband: -7.592505e-06  t[s]:     30.79
BandDavidson: Iter:  14  Eband: -0.036962954275125  dEband: -6.336191e-06  t[s]:     30.81
BandDavidson: Iter:  15  Eband: -0.036968269735987  dEband: -5.315461e-06  t[s]:     30.82
BandDavidson: Iter:  16  Eband: -0.036972754597666  dEband: -4.484862e-06  t[s]:     30.84
BandDavidson: Iter:  17  Eband: -0.036976535382640  dEband: -3.780785e-06  t[s]:     30.85
BandDavidson: Iter:  18  Eband: -0.036979738509180  dEband: -3.203127e-06  t[s]:     30.87
BandDavidson: Iter:  19  Eband: -0.036982455774182  dEband: -2.717265e-06  t[s]:     30.88
BandDavidson: Iter:  20  Eband: -0.036984778070349  dEband: -2.322296e-06  t[s]:     30.90
BandDavidson: Iter:  21  Eband: -0.036986758896231  dEband: -1.980826e-06  t[s]:     30.91
BandDavidson: Iter:  22  Eband: -0.036988458396367  dEband: -1.699500e-06  t[s]:     30.93
BandDavidson: Iter:  23  Eband: -0.036989914583459  dEband: -1.456187e-06  t[s]:     30.94
BandDavidson: Iter:  24  Eband: -0.036991167591482  dEband: -1.253008e-06  t[s]:     30.96
BandDavidson: Iter:  25  Eband: -0.036992244884653  dEband: -1.077293e-06  t[s]:     30.97
BandDavidson: Iter:  26  Eband: -0.036993174043385  dEband: -9.291587e-07  t[s]:     30.99
BandDavidson: Iter:  27  Eband: -0.036993973808172  dEband: -7.997648e-07  t[s]:     31.00
BandDavidson: Iter:  28  Eband: -0.036994662708918  dEband: -6.889007e-07  t[s]:     31.02
BandDavidson: Iter:  29  Eband: -0.036995257373356  dEband: -5.946644e-07  t[s]:     31.03
BandDavidson: Iter:  30  Eband: -0.036995771847491  dEband: -5.144741e-07  t[s]:     31.05
BandDavidson: Iter:  31  Eband: -0.036996216950489  dEband: -4.451030e-07  t[s]:     31.06
BandDavidson: Iter:  32  Eband: -0.036996603183014  dEband: -3.862325e-07  t[s]:     31.07
BandDavidson: Iter:  33  Eband: -0.036996938367319  dEband: -3.351843e-07  t[s]:     31.09
BandDavidson: Iter:  34  Eband: -0.036997229884551  dEband: -2.915172e-07  t[s]:     31.10
BandDavidson: Iter:  35  Eband: -0.036997483536415  dEband: -2.536519e-07  t[s]:     31.11
BandDavidson: Iter:  36  Eband: -0.036997704454491  dEband: -2.209181e-07  t[s]:     31.13
BandDavidson: Iter:  37  Eband: -0.036997896972705  dEband: -1.925182e-07  t[s]:     31.14
BandDavidson: Iter:  38  Eband: -0.036998064845626  dEband: -1.678729e-07  t[s]:     31.15
BandDavidson: Iter:  39  Eband: -0.036998211318544  dEband: -1.464729e-07  t[s]:     31.17
BandDavidson: Iter:  40  Eband: -0.036998339175345  dEband: -1.278568e-07  t[s]:     31.18
BandDavidson: Iter:  41  Eband: -0.036998450847656  dEband: -1.116723e-07  t[s]:     31.19
BandDavidson: Iter:  42  Eband: -0.036998548420653  dEband: -9.757300e-08  t[s]:     31.21
BandDavidson: Iter:  43  Eband: -0.036998633716862  dEband: -8.529621e-08  t[s]:     31.22
BandDavidson: Iter:  44  Eband: -0.036998708310435  dEband: -7.459357e-08  t[s]:     31.23
BandDavidson: Iter:  45  Eband: -0.036998773569963  dEband: -6.525953e-08  t[s]:     31.25
BandDavidson: Iter:  46  Eband: -0.036998830688610  dEband: -5.711865e-08  t[s]:     31.26
BandDavidson: Iter:  47  Eband: -0.036998880697578  dEband: -5.000897e-08  t[s]:     31.28
BandDavidson: Iter:  48  Eband: -0.036998924502285  dEband: -4.380471e-08  t[s]:     31.29
BandDavidson: Iter:  49  Eband: -0.036998962882737  dEband: -3.838045e-08  t[s]:     31.31
BandDavidson: Iter:  50  Eband: -0.036998996526079  dEband: -3.364334e-08  t[s]:     31.32
BandDavidson: Iter:  51  Eband: -0.036999026024416  dEband: -2.949834e-08  t[s]:     31.34
BandDavidson: Iter:  52  Eband: -0.036999051899418  dEband: -2.587500e-08  t[s]:     31.35
BandDavidson: Iter:  53  Eband: -0.036999074601887  dEband: -2.270247e-08  t[s]:     31.37
BandDavidson: Iter:  54  Eband: -0.036999094528256  dEband: -1.992637e-08  t[s]:     31.38
BandDavidson: Iter:  55  Eband: -0.036999112022563  dEband: -1.749431e-08  t[s]:     31.40
BandDavidson: Iter:  56  Eband: -0.036999127386524  dEband: -1.536396e-08  t[s]:     31.41
BandDavidson: Iter:  57  Eband: -0.036999140883223  dEband: -1.349670e-08  t[s]:     31.43
BandDavidson: Iter:  58  Eband: -0.036999152742704  dEband: -1.185948e-08  t[s]:     31.44
BandDavidson: Iter:  59  Eband: -0.036999163166482  dEband: -1.042378e-08  t[s]:     31.46
BandDavidson: Iter:  60  Eband: -0.036999172330300  dEband: -9.163818e-09  t[s]:     31.47
BandDavidson: Converged (dEband<1.000000e-08)

---- Minimization of quantum number:    74  [ +0.1403516 -0.0701747 +0.0000000 ]  0.024096386 ----
BandDavidson: Iter:   0  Eband: -0.023139230609210
BandDavidson: Iter:   1  Eband: -0.035556159854843  dEband: -1.241693e-02  t[s]:     31.50
BandDavidson: Iter:   2  Eband: -0.037106870142645  dEband: -1.550710e-03  t[s]:     31.51
BandDavidson: Iter:   3  Eband: -0.037156125191622  dEband: -4.925505e-05  t[s]:     31.53
BandDavidson: Iter:   4  Eband: -0.037160828421637  dEband: -4.703230e-06  t[s]:     31.55
BandDavidson: Iter:   5  Eband: -0.037161630398328  dEband: -8.019767e-07  t[s]:     31.57
BandDavidson: Iter:   6  Eband: -0.037161817996254  dEband: -1.875979e-07  t[s]:     31.58
BandDavidson: Iter:   7  Eband: -0.037161870269730  dEband: -5.227348e-08  t[s]:     31.60
BandDavidson: Iter:   8  Eband: -0.037161886594338  dEband: -1.632461e-08  t[s]:     31.62
BandDavidson: Iter:   9  Eband: -0.037161892675139  dEband: -6.080801e-09  t[s]:     31.63
BandDavidson: Converged (dEband<1.000000e-08)

---- Minimization of quantum number:    75  [ +0.1228076 -0.0614029 +0.0000000 ]  0.024096386 ----
BandDavidson: Iter:   0  Eband: -0.020690225100955
BandDavidson: Iter:   1  Eband: -0.034545484513866  dEband: -1.385526e-02  t[s]:     31.66
BandDavidson: Iter:   2  Eband: -0.036127523235869  dEband: -1.582039e-03  t[s]:     31.68
BandDavidson: Iter:   3  Eband: -0.037179884435482  dEband: -1.052361e-03  t[s]:     31.69
BandDavidson: Iter:   4  Eband: -0.037276336568821  dEband: -9.645213e-05  t[s]:     31.71
BandDavidson: Iter:   5  Eband: -0.037285908097260  dEband: -9.571528e-06  t[s]:     31.73
BandDavidson: Iter:   6  Eband: -0.037287003185302  dEband: -1.095088e-06  t[s]:     31.74
BandDavidson: Iter:   7  Eband: -0.037287170850006  dEband: -1.676647e-07  t[s]:     31.76
BandDavidson: Iter:   8  Eband: -0.037287207682092  dEband: -3.683209e-08  t[s]:     31.78
BandDavidson: Iter:   9  Eband: -0.037287220961209  dEband: -1.327912e-08  t[s]:     31.79
BandDavidson: Iter:  10  Eband: -0.037287228780161  dEband: -7.818951e-09  t[s]:     31.81
BandDavidson: Converged (dEband<1.000000e-08)

---- Minimization of quantum number:    76  [ +0.1052637 -0.0526311 +0.0000000 ]  0.024096386 ----
BandDavidson: Iter:   0  Eband: -0.020849431794895
BandDavidson: Iter:   1  Eband: -0.034892127217987  dEband: -1.404270e-02  t[s]:     31.84
BandDavidson: Iter:   2  Eband: -0.036314644468774  dEband: -1.422517e-03  t[s]:     31.85
BandDavidson: Iter:   3  Eband: -0.037268485962249  dEband: -9.538415e-04  t[s]:     31.87
BandDavidson: Iter:   4  Eband: -0.037369909648055  dEband: -1.014237e-04  t[s]:     31.89
BandDavidson: Iter:   5  Eband: -0.037378519882666  dEband: -8.610235e-06  t[s]:     31.90
BandDavidson: Iter:   6  Eband: -0.037379584501924  dEband: -1.064619e-06  t[s]:     31.92
BandDavidson: Iter:   7  Eband: -0.037379794195076  dEband: -2.096932e-07  t[s]:     31.94
BandDavidson: Iter:   8  Eband: -0.037379863708919  dEband: -6.951384e-08  t[s]:     31.95
BandDavidson: Iter:   9  Eband: -0.037379899327001  dEband: -3.561808e-08  t[s]:     31.97
BandDavidson: Iter:  10  Eband: -0.037379921876854  dEband: -2.254985e-08  t[s]:     31.99
BandDavidson: Iter:  11  Eband: -0.037379936857621  dEband: -1.498077e-08  t[s]:     32.00
BandDavidson: Iter:  12  Eband: -0.037379947540980  dEband: -1.068336e-08  t[s]:     32.02
BandDavidson: Iter:  13  Eband: -0.037379955375602  dEband: -7.834621e-09  t[s]:     32.04
BandDavidson: Converged (dEband<1.000000e-08)

---- Minimization of quantum number:    77  [ +0.0877197 -0.0438592 +0.0000000 ]  0.024096386 ----
BandDavidson: Iter:   0  Eband: -0.024845303001421
BandDavidson: Iter:   1  Eband: -0.035567785701317  dEband: -1.072248e-02  t[s]:     32.06
BandDavidson: Iter:   2  Eband: -0.037394744690798  dEband: -1.826959e-03  t[s]:     32.08
BandDavidson: Iter:   3  Eband: -0.037441248997402  dEband: -4.650431e-05  t[s]:     32.10
BandDavidson: Iter:   4  Eband: -0.037445042684081  dEband: -3.793687e-06  t[s]:     32.12
BandDavidson: Iter:   5  Eband: -0.037445658219677  dEband: -6.155356e-07  t[s]:     32.13
BandDavidson: Iter:   6  Eband: -0.037445804484908  dEband: -1.462652e-07  t[s]:     32.15
BandDavidson: Iter:   7  Eband: -0.037445849235105  dEband: -4.475020e-08  t[s]:     32.17
BandDavidson: Iter:   8  Eband: -0.037445864841137  dEband: -1.560603e-08  t[s]:     32.19
BandDavidson: Iter:   9  Eband: -0.037445871208696  dEband: -6.367559e-09  t[s]:     32.20
BandDavidson: Converged (dEband<1.000000e-08)

---- Minimization of quantum number:    78  [ +0.0701758 -0.0350874 +0.0000000 ]  0.024096386 ----
BandDavidson: Iter:   0  Eband: -0.020594463529276
BandDavidson: Iter:   1  Eband: -0.035437799466367  dEband: -1.484334e-02  t[s]:     32.23
BandDavidson: Iter:   2  Eband: -0.037244729188748  dEband: -1.806930e-03  t[s]:     32.25
BandDavidson: Iter:   3  Eband: -0.037468784005659  dEband: -2.240548e-04  t[s]:     32.27
BandDavidson: Iter:   4  Eband: -0.037487961283462  dEband: -1.917728e-05  t[s]:     32.28
BandDavidson: Iter:   5  Eband: -0.037489876692880  dEband: -1.915409e-06  t[s]:     32.30
BandDavidson: Iter:   6  Eband: -0.037490197285476  dEband: -3.205926e-07  t[s]:     32.32
BandDavidson: Iter:   7  Eband: -0.037490281158513  dEband: -8.387304e-08  t[s]:     32.33
BandDavidson: Iter:   8  Eband: -0.037490315317038  dEband: -3.415853e-08  t[s]:     32.35
BandDavidson: Iter:   9  Eband: -0.037490333470161  dEband: -1.815312e-08  t[s]:     32.37
BandDavidson: Iter:  10  Eband: -0.037490344130908  dEband: -1.066075e-08  t[s]:     32.38
BandDavidson: Iter:  11  Eband: -0.037490351052224  dEband: -6.921316e-09  t[s]:     32.40
BandDavidson: Converged (dEband<1.000000e-08)

---- Minimization of quantum number:    79  [ +0.0526318 -0.0263155 +0.0000000 ]  0.024096386 ----
BandDavidson: Iter:   0  Eband: -0.023416512226561
BandDavidson: Iter:   1  Eband: -0.036203771078921  dEband: -1.278726e-02  t[s]:     32.43
BandDavidson: Iter:   2  Eband: -0.037438451050623  dEband: -1.234680e-03  t[s]:     32.45
BandDavidson: Iter:   3  Eband: -0.037510955567162  dEband: -7.250452e-05  t[s]:     32.46
BandDavidson: Iter:   4  Eband: -0.037516846411564  dEband: -5.890844e-06  t[s]:     32.48
BandDavidson: Iter:   5  Eband: -0.037517839549028  dEband: -9.931375e-07  t[s]:     32.50
BandDavidson: Iter:   6  Eband: -0.037518098707141  dEband: -2.591581e-07  t[s]:     32.51
BandDavidson: Iter:   7  Eband: -0.037518180617776  dEband: -8.191064e-08  t[s]:     32.53
BandDavidson: Iter:   8  Eband: -0.037518210343167  dEband: -2.972539e-08  t[s]:     32.55
BandDavidson: Iter:   9  Eband: -0.037518221623285  dEband: -1.128012e-08  t[s]:     32.56
BandDavidson: Iter:  10  Eband: -0.037518226182998  dEband: -4.559713e-09  t[s]:     32.58
BandDavidson: Converged (dEband<1.000000e-08)

---- Minimization of quantum number:    80  [ +0.0350879 -0.0175437 +0.0000000 ]  0.024096386 ----
BandDavidson: Iter:   0  Eband: -0.023146199737968
BandDavidson: Iter:   1  Eband: -0.036132237631695  dEband: -1.298604e-02  t[s]:     32.61
BandDavidson: Iter:   2  Eband: -0.037492807197681  dEband: -1.360570e-03  t[s]:     32.63
BandDavidson: Iter:   3  Eband: -0.037530984129471  dEband: -3.817693e-05  t[s]:     32.64
BandDavidson: Iter:   4  Eband: -0.037533815046429  dEband: -2.830917e-06  t[s]:     32.66
BandDavidson: Iter:   5  Eband: -0.037534312708586  dEband: -4.976622e-07  t[s]:     32.68
BandDavidson: Iter:   6  Eband: -0.037534440057272  dEband: -1.273487e-07  t[s]:     32.69
BandDavidson: Iter:   7  Eband: -0.037534480197739  dEband: -4.014047e-08  t[s]:     32.71
BandDavidson: Iter:   8  Eband: -0.037534494168186  dEband: -1.397045e-08  t[s]:     32.73
BandDavidson: Iter:   9  Eband: -0.037534499467265  dEband: -5.299079e-09  t[s]:     32.75
BandDavidson: Converged (dEband<1.000000e-08)

---- Minimization of quantum number:    81  [ +0.0175439 -0.0087718 +0.0000000 ]  0.024096386 ----
BandDavidson: Iter:   0  Eband: -0.022389625536620
BandDavidson: Iter:   1  Eband: -0.036479731727995  dEband: -1.409011e-02  t[s]:     32.77
BandDavidson: Iter:   2  Eband: -0.037504494653491  dEband: -1.024763e-03  t[s]:     32.79
BandDavidson: Iter:   3  Eband: -0.037538219481178  dEband: -3.372483e-05  t[s]:     32.80
BandDavidson: Iter:   4  Eband: -0.037541525260162  dEband: -3.305779e-06  t[s]:     32.82
BandDavidson: Iter:   5  Eband: -0.037542160167167  dEband: -6.349070e-07  t[s]:     32.84
BandDavidson: Iter:   6  Eband: -0.037542335778699  dEband: -1.756115e-07  t[s]:     32.86
BandDavidson: Iter:   7  Eband: -0.037542397057166  dEband: -6.127847e-08  t[s]:     32.87
BandDavidson: Iter:   8  Eband: -0.037542420127177  dEband: -2.307001e-08  t[s]:     32.89
BandDavidson: Iter:   9  Eband: -0.037542429240050  dEband: -9.112873e-09  t[s]:     32.91
BandDavidson: Converged (dEband<1.000000e-08)

---- Minimization of quantum number:    82  [ +0.0000000 +0.0000000 +0.0000000 ]  0.024096386 ----
BandDavidson: Iter:   0  Eband: -0.021015431253655
BandDavidson: Iter:   1  Eband: -0.035952500008605  dEband: -1.493707e-02  t[s]:     32.94
BandDavidson: Iter:   2  Eband: -0.037375725306629  dEband: -1.423225e-03  t[s]:     32.95
BandDavidson: Iter:   3  Eband: -0.037528763842920  dEband: -1.530385e-04  t[s]:     32.97
BandDavidson: Iter:   4  Eband: -0.037542678509708  dEband: -1.391467e-05  t[s]:     32.99
BandDavidson: Iter:   5  Eband: -0.037544360005729  dEband: -1.681496e-06  t[s]:     33.01
BandDavidson: Iter:   6  Eband: -0.037544617194952  dEband: -2.571892e-07  t[s]:     33.02
BandDavidson: Iter:   7  Eband: -0.037544669375587  dEband: -5.218064e-08  t[s]:     33.04
BandDavidson: Iter:   8  Eband: -0.037544684141490  dEband: -1.476590e-08  t[s]:     33.06
BandDavidson: Iter:   9  Eband: -0.037544689600716  dEband: -5.459226e-09  t[s]:     33.07
BandDavidson: Converged (dEband<1.000000e-08)
Setting wave functions to eigenvectors of Hamiltonian

Dumping 'bandstruct.eigenvals' ... done
End date and time: Mon Mar 11 08:12:28 2019  (Duration: 0-0:00:33.24)
Done!
