
*************** JDFTx 1.4.2  ***************

Start date and time: Sun Mar  3 21:59:35 2019
Executable jdftx with command-line: -i TotalE.in
Running on hosts (process indices):  Juans-MBP.lan1 (0)
Divided in process groups (process indices):  0 (0)
Resource initialization completed at t[s]:      0.00
Run totals: 1 processes, 12 threads, 0 GPUs


Input parsed successfully to the following command list (including defaults):

basis kpoint-dependent
coords-type Cartesian
core-overlap-check none
coulomb-interaction Isolated
coulomb-truncation-embed 0 0 0
davidson-band-ratio 1.1
dump End State ElecDensity
dump-name H2.$VAR
elec-cutoff 20 100
elec-eigen-algo Davidson
elec-ex-corr gga-PBE
electronic-minimize  \
	dirUpdateScheme      FletcherReeves \
	linminMethod         DirUpdateRecommended \
	nIterations          100 \
	history              15 \
	knormThreshold       0 \
	energyDiffThreshold  1e-08 \
	nEnergyDiff          2 \
	alphaTstart          1 \
	alphaTmin            1e-10 \
	updateTestStepSize   yes \
	alphaTreduceFactor   0.1 \
	alphaTincreaseFactor 3 \
	nAlphaAdjustMax      3 \
	wolfeEnergy          0.0001 \
	wolfeGradient        0.9 \
	fdTest               no
exchange-regularization None
fluid None
fluid-ex-corr lda-TF lda-PZ
fluid-gummel-loop 10 1.000000e-05
fluid-minimize  \
	dirUpdateScheme      PolakRibiere \
	linminMethod         DirUpdateRecommended \
	nIterations          100 \
	history              15 \
	knormThreshold       0 \
	energyDiffThreshold  0 \
	nEnergyDiff          2 \
	alphaTstart          1 \
	alphaTmin            1e-10 \
	updateTestStepSize   yes \
	alphaTreduceFactor   0.1 \
	alphaTincreaseFactor 3 \
	nAlphaAdjustMax      3 \
	wolfeEnergy          0.0001 \
	wolfeGradient        0.9 \
	fdTest               no
fluid-solvent H2O 55.338 ScalarEOS \
	epsBulk 78.4 \
	pMol 0.92466 \
	epsInf 1.77 \
	Pvap 1.06736e-10 \
	sigmaBulk 4.62e-05 \
	Rvdw 2.61727 \
	Res 1.42
forces-output-coords Positions
ion H   0.000000000000000   0.000000000000000   0.719643787034997 1
ion H   0.000000000000000   0.000000000000000  -0.719643787034997 1
ion-species GBRV/$ID_pbe.uspp
ion-width 0
ionic-minimize  \
	dirUpdateScheme      L-BFGS \
	linminMethod         DirUpdateRecommended \
	nIterations          10 \
	history              15 \
	knormThreshold       0.0001 \
	energyDiffThreshold  1e-06 \
	nEnergyDiff          2 \
	alphaTstart          1 \
	alphaTmin            1e-10 \
	updateTestStepSize   yes \
	alphaTreduceFactor   0.1 \
	alphaTincreaseFactor 3 \
	nAlphaAdjustMax      3 \
	wolfeEnergy          0.0001 \
	wolfeGradient        0.9 \
	fdTest               no
kpoint   0.000000000000   0.000000000000   0.000000000000  1.00000000000000
kpoint-folding 1 1 1 
latt-move-scale 1 1 1
latt-scale 1 1 1 
lattice Cubic 15
lattice-minimize  \
	dirUpdateScheme      L-BFGS \
	linminMethod         DirUpdateRecommended \
	nIterations          0 \
	history              15 \
	knormThreshold       0 \
	energyDiffThreshold  1e-06 \
	nEnergyDiff          2 \
	alphaTstart          1 \
	alphaTmin            1e-10 \
	updateTestStepSize   yes \
	alphaTreduceFactor   0.1 \
	alphaTincreaseFactor 3 \
	nAlphaAdjustMax      3 \
	wolfeEnergy          0.0001 \
	wolfeGradient        0.9 \
	fdTest               no
lcao-params -1 1e-06 0.001
pcm-variant GLSSA13
spintype no-spin
subspace-rotation-factor 1 yes
symmetries automatic
symmetry-threshold 0.0001



---------- Setting up symmetries ----------

Found 48 point-group symmetries of the bravais lattice
Found 16 space-group symmetries with basis
Applied RMS atom displacement 0 bohrs to make symmetries exact.

---------- Initializing the Grid ----------
R = 
[         15          0          0  ]
[          0         15          0  ]
[          0          0         15  ]
unit cell volume = 3375
G =
[   0.418879          0          0  ]
[          0   0.418879          0  ]
[          0          0   0.418879  ]
Minimum fftbox size, Smin = [  68  68  68  ]
Chosen fftbox size, S = [  70  70  70  ]

---------- Initializing tighter grid for wavefunction operations ----------
R = 
[         15          0          0  ]
[          0         15          0  ]
[          0          0         15  ]
unit cell volume = 3375
G =
[   0.418879          0          0  ]
[          0   0.418879          0  ]
[          0          0   0.418879  ]
Minimum fftbox size, Smin = [  64  64  64  ]
Chosen fftbox size, S = [  64  64  64  ]

---------- Exchange Correlation functional ----------
Initalized PBE GGA exchange.
Initalized PBE GGA correlation.

---------- Setting up pseudopotentials ----------
Width of ionic core gaussian charges (only for fluid interactions / plotting) set to 0

Reading pseudopotential file '/Users/juanmendezvalderrama/Documents/JDFTX/build/pseudopotentials/GBRV/h_pbe.uspp':
  Title: H.  Created by USPP 7.3.6 on 2-4-15
  Reference state energy: -0.458849.  1 valence electrons in orbitals:
    |100>  occupation: 1  eigenvalue: -0.238595
  lMax: 0  lLocal: 1  QijEcut: 6
  2 projectors sampled on a log grid with 395 points:
    l: 0  eig: -0.238595  rCut: 1.2
    l: 0  eig: 1.000000  rCut: 1.2
  Transforming local potential to a uniform radial grid of dG=0.02 with 1275 points.
  Transforming nonlocal projectors to a uniform radial grid of dG=0.02 with 432 points.
  Transforming density augmentations to a uniform radial grid of dG=0.02 with 1275 points.
  Transforming atomic orbitals to a uniform radial grid of dG=0.02 with 432 points.
  Core radius for overlap checks: 1.20 bohrs.

Initialized 1 species with 2 total atoms.

Folded 1 k-points by 1x1x1 to 1 k-points.

---------- Setting up k-points, bands, fillings ----------
No reducable k-points. 
Computing the number of bands and number of electrons
Calculating initial fillings.
nElectrons:   2.000000   nBands: 1   nStates: 1

----- Setting up reduced wavefunction bases (one per k-point) -----
average nbasis = 14363.000 , ideal nbasis = 14418.257

---------- Setting up coulomb interaction ----------
Setting up double-sized grid for truncated Coulomb potentials:
R = 
[         30          0          0  ]
[          0         30          0  ]
[          0          0         30  ]
unit cell volume = 27000
G =
[    0.20944          0          0  ]
[          0    0.20944          0  ]
[          0          0    0.20944  ]
Chosen fftbox size, S = [  140  140  140  ]
Integer grid location selected as the embedding center:
   Grid: [  0  0  0  ]
   Lattice: [  0  0  0  ]
   Cartesian: [  0  0  0  ]
Constructing Wigner-Seitz cell: 6 faces (6 quadrilaterals, 0 hexagons)
Range-separation parameter for embedded mesh potentials due to point charges: 0.583992 bohrs.
Constructing Wigner-Seitz cell: 6 faces (6 quadrilaterals, 0 hexagons)
Gaussian width for range separation: 1.58054 bohrs.
FFT grid for long-range part: [ 140 140 140 ].
Planning fourier transform ... Done.
Computing truncated long-range part in real space ... Done.
Adding short-range part in reciprocal space ... Done.

---------- Allocating electronic variables ----------
Initializing wave functions:  linear combination of atomic orbitals
H pseudo-atom occupations:   s ( 1 )
	FillingsUpdate:  mu: -0.000000000  nElectrons: 2.000000
LCAOMinimize: Iter:   0  Etot: -1.1024443138707769  |grad|_K:  2.963e-05  alpha:  1.000e+00
	FillingsUpdate:  mu: -0.000000000  nElectrons: 2.000000
LCAOMinimize: Iter:   1  Etot: -1.1024443178413630  |grad|_K:  1.209e-07  alpha:  1.005e+00  linmin:  1.262e-02  cgtest: -9.900e-01  t[s]:      5.01
LCAOMinimize: 	Step increased Etot by 2.220446e-15, reducing alpha to 2.638778e-03.
	FillingsUpdate:  mu: -0.000000000  nElectrons: 2.000000
LCAOMinimize: Iter:   2  Etot: -1.1024443178413654  |grad|_K:  1.209e-07  alpha:  2.639e-03  linmin: -9.911e-05  cgtest:  1.000e+00  t[s]:      5.49
LCAOMinimize: Encountered beta<0, resetting CG.
LCAOMinimize: Converged (|Delta Etot|<1.000000e-06 for 2 iters).


---- Citations for features of the code used in this run ----

   Software package:
      R. Sundararaman, K. Letchworth-Weaver, K.A. Schwarz, D. Gunceler, Y. Ozhabes and T.A. Arias, 'JDFTx: software for joint density-functional theory', SoftwareX 6, 278 (2017)

   gga-PBE exchange-correlation functional:
      J.P. Perdew, K. Burke and M. Ernzerhof, Phys. Rev. Lett. 77, 3865 (1996)

   Pseudopotentials:
      KF Garrity, JW Bennett, KM Rabe and D Vanderbilt, Comput. Mater. Sci. 81, 446 (2014)

   Truncated Coulomb potentials:
      R. Sundararaman and T.A. Arias, Phys. Rev. B 87, 165122 (2013)

   Total energy minimization:
      T.A. Arias, M.C. Payne and J.D. Joannopoulos, Phys. Rev. Lett. 69, 1077 (1992)

This list may not be complete. Please suggest additional citations or
report any other bugs at https://github.com/shankar1729/jdftx/issues

Initialization completed successfully at t[s]:      5.49


-------- Electronic minimization -----------
ElecMinimize: Iter:   0  Etot: -1.102444317841365  |grad|_K:  1.533e-03  alpha:  1.000e+00
ElecMinimize: Iter:   1  Etot: -1.163763812648726  |grad|_K:  2.629e-04  alpha:  1.815e+00  linmin: -4.608e-02  t[s]:      6.20
ElecMinimize: Iter:   2  Etot: -1.164987623593654  |grad|_K:  7.342e-05  alpha:  1.223e+00  linmin: -9.583e-04  t[s]:      6.51
ElecMinimize: Iter:   3  Etot: -1.165122936419263  |grad|_K:  2.576e-05  alpha:  1.749e+00  linmin:  4.917e-03  t[s]:      6.82
ElecMinimize: Iter:   4  Etot: -1.165136336958965  |grad|_K:  6.829e-06  alpha:  1.410e+00  linmin:  1.177e-04  t[s]:      7.13
ElecMinimize: Iter:   5  Etot: -1.165137237780746  |grad|_K:  1.800e-06  alpha:  1.345e+00  linmin:  1.459e-04  t[s]:      7.44
ElecMinimize: Iter:   6  Etot: -1.165137302143088  |grad|_K:  4.760e-07  alpha:  1.383e+00  linmin:  1.494e-04  t[s]:      7.75
ElecMinimize: Iter:   7  Etot: -1.165137306442457  |grad|_K:  1.082e-07  alpha:  1.321e+00  linmin:  6.995e-05  t[s]:      8.07
ElecMinimize: Iter:   8  Etot: -1.165137306644263  |grad|_K:  2.151e-08  alpha:  1.200e+00  linmin: -5.856e-05  t[s]:      8.38
ElecMinimize: Converged (|Delta Etot|<1.000000e-08 for 2 iters).
Setting wave functions to eigenvectors of Hamiltonian

# Ionic positions in cartesian coordinates:
ion H   0.000000000000000   0.000000000000000   0.719643787034997 1
ion H   0.000000000000000   0.000000000000000  -0.719643787034997 1


# Forces in Cartesian coordinates:
force H   0.000000000000000   0.000000000000000   0.000003417417799 1
force H   0.000000000000000   0.000000000000000  -0.000003417417799 1

# Energy components:
   Eewald =        0.6947881841098762
       EH =        1.2972564488314682
     Eloc =       -3.3343436415245464
      Enl =       -0.0575279858276245
      Exc =       -0.6830747864084005
       KE =        0.9177644741749638
-------------------------------------
     Etot =       -1.1651373066442634

IonicMinimize: Iter:   0  Etot: -1.165137306644263  |grad|_K:  1.973e-06  t[s]:      8.48
IonicMinimize: Converged (|grad|_K<1.000000e-04).

#--- Lowdin population analysis ---
# oxidation-state H +0.037 +0.037


Dumping 'H2.wfns' ... done
Dumping 'H2.ionpos' ... done
Dumping 'H2.n' ... done
End date and time: Sun Mar  3 21:59:44 2019  (Duration: 0-0:00:08.50)
Done!
