
*************** JDFTx 1.4.2  ***************

Start date and time: Mon Mar  4 09:44:36 2019
Executable jdftx with command-line: -i Si.in
Running on hosts (process indices):  dhcp-ccc-1230.eduroam.cornell.edu (0-3)
Divided in process groups (process indices):  0 (0)  1 (1)  2 (2)  3 (3)
Resource initialization completed at t[s]:      0.00
Run totals: 4 processes, 12 threads, 0 GPUs


Input parsed successfully to the following command list (including defaults):

basis kpoint-dependent
coords-type Lattice
core-overlap-check vector
coulomb-interaction Periodic
davidson-band-ratio 1.1
dump End ElecDensity
dump-name Si.$VAR
elec-cutoff 20 100
elec-eigen-algo Davidson
elec-ex-corr gga-PBE
electronic-minimize  \
	dirUpdateScheme      FletcherReeves \
	linminMethod         DirUpdateRecommended \
	nIterations          100 \
	history              15 \
	knormThreshold       0 \
	energyDiffThreshold  1e-08 \
	nEnergyDiff          2 \
	alphaTstart          1 \
	alphaTmin            1e-10 \
	updateTestStepSize   yes \
	alphaTreduceFactor   0.1 \
	alphaTincreaseFactor 3 \
	nAlphaAdjustMax      3 \
	wolfeEnergy          0.0001 \
	wolfeGradient        0.9 \
	fdTest               no
exchange-regularization WignerSeitzTruncated
fluid None
fluid-ex-corr lda-TF lda-PZ
fluid-gummel-loop 10 1.000000e-05
fluid-minimize  \
	dirUpdateScheme      PolakRibiere \
	linminMethod         DirUpdateRecommended \
	nIterations          100 \
	history              15 \
	knormThreshold       0 \
	energyDiffThreshold  0 \
	nEnergyDiff          2 \
	alphaTstart          1 \
	alphaTmin            1e-10 \
	updateTestStepSize   yes \
	alphaTreduceFactor   0.1 \
	alphaTincreaseFactor 3 \
	nAlphaAdjustMax      3 \
	wolfeEnergy          0.0001 \
	wolfeGradient        0.9 \
	fdTest               no
fluid-solvent H2O 55.338 ScalarEOS \
	epsBulk 78.4 \
	pMol 0.92466 \
	epsInf 1.77 \
	Pvap 1.06736e-10 \
	sigmaBulk 4.62e-05 \
	Rvdw 2.61727 \
	Res 1.42
forces-output-coords Positions
ion Si   0.000000000000000   0.000000000000000   0.000000000000000 0
ion Si   0.250000000000000   0.250000000000000   0.250000000000000 0
ion-species GBRV/$ID_pbe.uspp
ion-width 0
ionic-minimize  \
	dirUpdateScheme      L-BFGS \
	linminMethod         DirUpdateRecommended \
	nIterations          0 \
	history              15 \
	knormThreshold       0.0001 \
	energyDiffThreshold  1e-06 \
	nEnergyDiff          2 \
	alphaTstart          1 \
	alphaTmin            1e-10 \
	updateTestStepSize   yes \
	alphaTreduceFactor   0.1 \
	alphaTincreaseFactor 3 \
	nAlphaAdjustMax      3 \
	wolfeEnergy          0.0001 \
	wolfeGradient        0.9 \
	fdTest               no
kpoint   0.500000000000   0.500000000000   0.500000000000  1.00000000000000
kpoint-folding 4 4 4 
latt-move-scale 1 1 1
latt-scale 1.88973 1.88973 1.88973 
lattice Face-Centered Cubic 5.43
lattice-minimize  \
	dirUpdateScheme      L-BFGS \
	linminMethod         DirUpdateRecommended \
	nIterations          0 \
	history              15 \
	knormThreshold       0 \
	energyDiffThreshold  1e-06 \
	nEnergyDiff          2 \
	alphaTstart          1 \
	alphaTmin            1e-10 \
	updateTestStepSize   yes \
	alphaTreduceFactor   0.1 \
	alphaTincreaseFactor 3 \
	nAlphaAdjustMax      3 \
	wolfeEnergy          0.0001 \
	wolfeGradient        0.9 \
	fdTest               no
lcao-params -1 1e-06 0.001
pcm-variant GLSSA13
spintype no-spin
subspace-rotation-factor 1 yes
symmetries automatic
symmetry-threshold 0.0001



---------- Setting up symmetries ----------

Found 48 point-group symmetries of the bravais lattice
Found 48 space-group symmetries with basis
Applied RMS atom displacement 0 bohrs to make symmetries exact.

---------- Initializing the Grid ----------
R = 
[          0    5.13062    5.13062  ]
[    5.13062          0    5.13062  ]
[    5.13062    5.13062          0  ]
unit cell volume = 270.109
G =
[  -0.612323   0.612323   0.612323  ]
[   0.612323  -0.612323   0.612323  ]
[   0.612323   0.612323  -0.612323  ]
Minimum fftbox size, Smin = [  36  36  36  ]
Chosen fftbox size, S = [  36  36  36  ]

---------- Initializing tighter grid for wavefunction operations ----------
R = 
[          0    5.13062    5.13062  ]
[    5.13062          0    5.13062  ]
[    5.13062    5.13062          0  ]
unit cell volume = 270.109
G =
[  -0.612323   0.612323   0.612323  ]
[   0.612323  -0.612323   0.612323  ]
[   0.612323   0.612323  -0.612323  ]
Minimum fftbox size, Smin = [  32  32  32  ]
Chosen fftbox size, S = [  32  32  32  ]

---------- Exchange Correlation functional ----------
Initalized PBE GGA exchange.
Initalized PBE GGA correlation.

---------- Setting up pseudopotentials ----------
Width of ionic core gaussian charges (only for fluid interactions / plotting) set to 0

Reading pseudopotential file '/Users/juanmendezvalderrama/Documents/JDFTX/build/pseudopotentials/GBRV/si_pbe.uspp':
  Title: Si.  Created by USPP 7.3.6 on 14-9-2013
  Reference state energy: -4.599342.  4 valence electrons in orbitals:
    |300>  occupation: 2  eigenvalue: -0.397366
    |310>  occupation: 2  eigenvalue: -0.149981
  lMax: 2  lLocal: 3  QijEcut: 5
  6 projectors sampled on a log grid with 627 points:
    l: 0  eig: -0.397364  rCut: 1.6
    l: 0  eig: 1.000000  rCut: 1.6
    l: 1  eig: -0.149982  rCut: 1.6
    l: 1  eig: 1.000000  rCut: 1.6
    l: 2  eig: -0.100000  rCut: 1.7
    l: 2  eig: 0.100000  rCut: 1.7
  Partial core density with radius 1.45
  Transforming core density to a uniform radial grid of dG=0.02 with 1833 points.
  Transforming local potential to a uniform radial grid of dG=0.02 with 1833 points.
  Transforming nonlocal projectors to a uniform radial grid of dG=0.02 with 432 points.
  Transforming density augmentations to a uniform radial grid of dG=0.02 with 1833 points.
  Transforming atomic orbitals to a uniform radial grid of dG=0.02 with 432 points.
  Core radius for overlap checks: 1.70 bohrs.

Initialized 1 species with 2 total atoms.

Folded 1 k-points by 4x4x4 to 64 k-points.

---------- Setting up k-points, bands, fillings ----------

WARNING: k-mesh symmetries are a subgroup of size 12
The effectively sampled k-mesh is a superset of the specified one,
and the answers need not match those with symmetries turned off.
Reduced to 10 k-points under symmetry. 
Computing the number of bands and number of electrons
Calculating initial fillings.
nElectrons:   8.000000   nBands: 4   nStates: 10

----- Setting up reduced wavefunction bases (one per k-point) -----
average nbasis = 1154.812 , ideal nbasis = 1153.925

---------- Setting up ewald sum ----------
Optimum gaussian width for ewald sums = 2.330237 bohr.
Real space sum over 1331 unit cells with max indices [  5  5  5  ]
Reciprocal space sum over 2197 terms with max indices [  6  6  6  ]

---------- Allocating electronic variables ----------
Initializing wave functions:  linear combination of atomic orbitals
Si pseudo-atom occupations:   s ( 2 )  p ( 2 )
	FillingsUpdate:  mu: +0.278287581  nElectrons: 8.000000
LCAOMinimize: Iter:   0  Etot: -7.8866922527458430  |grad|_K:  1.310e-04  alpha:  1.000e+00
	FillingsUpdate:  mu: +0.278214541  nElectrons: 8.000000
LCAOMinimize: Iter:   1  Etot: -7.8866988600300241  |grad|_K:  3.942e-06  alpha:  9.502e-01  linmin:  7.022e-04  cgtest: -8.604e-04  t[s]:      0.98
	FillingsUpdate:  mu: +0.278216762  nElectrons: 8.000000
LCAOMinimize: Iter:   2  Etot: -7.8866988662871016  |grad|_K:  6.980e-09  alpha:  9.944e-01  linmin: -4.008e-02  cgtest:  1.149e-01  t[s]:      1.07
LCAOMinimize: Encountered beta<0, resetting CG.
LCAOMinimize: 	Predicted alpha/alphaT>3.000000, increasing alphaT to 2.983310e+00.
	FillingsUpdate:  mu: +0.278216765  nElectrons: 8.000000
LCAOMinimize: Iter:   3  Etot: -7.8866988662871220  |grad|_K:  3.929e-10  alpha:  9.370e-01  linmin: -3.914e-01  cgtest:  8.826e-01  t[s]:      1.19
LCAOMinimize: Encountered beta<0, resetting CG.
LCAOMinimize: Converged (|Delta Etot|<1.000000e-06 for 2 iters).


---- Citations for features of the code used in this run ----

   Software package:
      R. Sundararaman, K. Letchworth-Weaver, K.A. Schwarz, D. Gunceler, Y. Ozhabes and T.A. Arias, 'JDFTx: software for joint density-functional theory', SoftwareX 6, 278 (2017)

   gga-PBE exchange-correlation functional:
      J.P. Perdew, K. Burke and M. Ernzerhof, Phys. Rev. Lett. 77, 3865 (1996)

   Pseudopotentials:
      KF Garrity, JW Bennett, KM Rabe and D Vanderbilt, Comput. Mater. Sci. 81, 446 (2014)

   Total energy minimization:
      T.A. Arias, M.C. Payne and J.D. Joannopoulos, Phys. Rev. Lett. 69, 1077 (1992)

This list may not be complete. Please suggest additional citations or
report any other bugs at https://github.com/shankar1729/jdftx/issues

Initialization completed successfully at t[s]:      1.19


-------- Electronic minimization -----------
ElecMinimize: Iter:   0  Etot: -7.886698866287123  |grad|_K:  7.620e-04  alpha:  1.000e+00
ElecMinimize: Iter:   1  Etot: -7.936716998656273  |grad|_K:  2.537e-04  alpha:  1.861e+00  linmin: -6.809e-03  t[s]:      1.33
ElecMinimize: Iter:   2  Etot: -7.942226817529209  |grad|_K:  7.396e-05  alpha:  1.844e+00  linmin: -8.385e-06  t[s]:      1.39
ElecMinimize: Iter:   3  Etot: -7.942703364644187  |grad|_K:  3.395e-05  alpha:  1.884e+00  linmin: -5.108e-06  t[s]:      1.46
ElecMinimize: Iter:   4  Etot: -7.942836122691676  |grad|_K:  2.109e-05  alpha:  2.491e+00  linmin: -5.697e-05  t[s]:      1.53
ElecMinimize: Iter:   5  Etot: -7.942879433005805  |grad|_K:  1.040e-05  alpha:  2.106e+00  linmin: -3.062e-06  t[s]:      1.59
ElecMinimize: Iter:   6  Etot: -7.942889307107276  |grad|_K:  5.050e-06  alpha:  1.973e+00  linmin:  6.284e-06  t[s]:      1.66
ElecMinimize: Iter:   7  Etot: -7.942891457915755  |grad|_K:  2.361e-06  alpha:  1.823e+00  linmin:  4.789e-06  t[s]:      1.73
ElecMinimize: Iter:   8  Etot: -7.942891956168816  |grad|_K:  1.195e-06  alpha:  1.933e+00  linmin: -1.494e-07  t[s]:      1.80
ElecMinimize: Iter:   9  Etot: -7.942892095312480  |grad|_K:  6.374e-07  alpha:  2.106e+00  linmin: -4.998e-07  t[s]:      1.86
ElecMinimize: Iter:  10  Etot: -7.942892133941978  |grad|_K:  3.276e-07  alpha:  2.055e+00  linmin: -9.721e-08  t[s]:      1.93
ElecMinimize: Iter:  11  Etot: -7.942892143980072  |grad|_K:  1.673e-07  alpha:  2.023e+00  linmin:  5.220e-07  t[s]:      2.00
ElecMinimize: Iter:  12  Etot: -7.942892146621237  |grad|_K:  8.498e-08  alpha:  2.040e+00  linmin:  9.519e-07  t[s]:      2.07
ElecMinimize: Iter:  13  Etot: -7.942892147303623  |grad|_K:  4.632e-08  alpha:  2.043e+00  linmin: -4.852e-06  t[s]:      2.14
ElecMinimize: Converged (|Delta Etot|<1.000000e-08 for 2 iters).
Setting wave functions to eigenvectors of Hamiltonian

# Ionic positions in lattice coordinates:
ion Si   0.000000000000000   0.000000000000000   0.000000000000000 0
ion Si   0.250000000000000   0.250000000000000   0.250000000000000 0


# Forces in Lattice coordinates:
force Si   0.000000000000000  -0.000000000000000   0.000000000000000 0
force Si  -0.000000000000000   0.000000000000000   0.000000000000000 0

# Energy components:
   Eewald =       -8.3994546412464199
       EH =        0.5580305474668709
     Eloc =       -2.1032157293297526
      Enl =        1.6297170169795803
      Exc =       -4.3108523954076761
 Exc_core =        1.6535544468665373
       KE =        3.0293286073672379
-------------------------------------
     Etot =       -7.9428921473036231

IonicMinimize: Iter:   0  Etot: -7.942892147303623  |grad|_K:  0.000e+00  t[s]:      2.18
IonicMinimize: Converged (|grad|_K<1.000000e-04).

#--- Lowdin population analysis ---
# oxidation-state Si +0.035 +0.035


Dumping 'Si.n' ... done
End date and time: Mon Mar  4 09:44:39 2019  (Duration: 0-0:00:02.18)
Done!
