
*************** JDFTx 1.4.2  ***************

Start date and time: Mon Mar  4 09:44:39 2019
Executable jdftx with command-line: -i Si.in
Running on hosts (process indices):  dhcp-ccc-1230.eduroam.cornell.edu (0-3)
Divided in process groups (process indices):  0 (0)  1 (1)  2 (2)  3 (3)
Resource initialization completed at t[s]:      0.00
Run totals: 4 processes, 12 threads, 0 GPUs


Input parsed successfully to the following command list (including defaults):

basis kpoint-dependent
coords-type Lattice
core-overlap-check vector
coulomb-interaction Periodic
davidson-band-ratio 1.1
dump End ElecDensity
dump-name Si.$VAR
elec-cutoff 20 100
elec-eigen-algo Davidson
elec-ex-corr gga-PBE
electronic-minimize  \
	dirUpdateScheme      FletcherReeves \
	linminMethod         DirUpdateRecommended \
	nIterations          100 \
	history              15 \
	knormThreshold       0 \
	energyDiffThreshold  1e-08 \
	nEnergyDiff          2 \
	alphaTstart          1 \
	alphaTmin            1e-10 \
	updateTestStepSize   yes \
	alphaTreduceFactor   0.1 \
	alphaTincreaseFactor 3 \
	nAlphaAdjustMax      3 \
	wolfeEnergy          0.0001 \
	wolfeGradient        0.9 \
	fdTest               no
exchange-regularization WignerSeitzTruncated
fluid None
fluid-ex-corr lda-TF lda-PZ
fluid-gummel-loop 10 1.000000e-05
fluid-minimize  \
	dirUpdateScheme      PolakRibiere \
	linminMethod         DirUpdateRecommended \
	nIterations          100 \
	history              15 \
	knormThreshold       0 \
	energyDiffThreshold  0 \
	nEnergyDiff          2 \
	alphaTstart          1 \
	alphaTmin            1e-10 \
	updateTestStepSize   yes \
	alphaTreduceFactor   0.1 \
	alphaTincreaseFactor 3 \
	nAlphaAdjustMax      3 \
	wolfeEnergy          0.0001 \
	wolfeGradient        0.9 \
	fdTest               no
fluid-solvent H2O 55.338 ScalarEOS \
	epsBulk 78.4 \
	pMol 0.92466 \
	epsInf 1.77 \
	Pvap 1.06736e-10 \
	sigmaBulk 4.62e-05 \
	Rvdw 2.61727 \
	Res 1.42
forces-output-coords Positions
ion Si   0.000000000000000   0.000000000000000   0.000000000000000 0
ion Si   0.250000000000000   0.250000000000000   0.250000000000000 0
ion-species GBRV/$ID_pbe.uspp
ion-width 0
ionic-minimize  \
	dirUpdateScheme      L-BFGS \
	linminMethod         DirUpdateRecommended \
	nIterations          0 \
	history              15 \
	knormThreshold       0.0001 \
	energyDiffThreshold  1e-06 \
	nEnergyDiff          2 \
	alphaTstart          1 \
	alphaTmin            1e-10 \
	updateTestStepSize   yes \
	alphaTreduceFactor   0.1 \
	alphaTincreaseFactor 3 \
	nAlphaAdjustMax      3 \
	wolfeEnergy          0.0001 \
	wolfeGradient        0.9 \
	fdTest               no
kpoint   0.500000000000   0.500000000000   0.500000000000  1.00000000000000
kpoint-folding 8 8 8 
latt-move-scale 1 1 1
latt-scale 1.88973 1.88973 1.88973 
lattice Face-Centered Cubic 5.43
lattice-minimize  \
	dirUpdateScheme      L-BFGS \
	linminMethod         DirUpdateRecommended \
	nIterations          0 \
	history              15 \
	knormThreshold       0 \
	energyDiffThreshold  1e-06 \
	nEnergyDiff          2 \
	alphaTstart          1 \
	alphaTmin            1e-10 \
	updateTestStepSize   yes \
	alphaTreduceFactor   0.1 \
	alphaTincreaseFactor 3 \
	nAlphaAdjustMax      3 \
	wolfeEnergy          0.0001 \
	wolfeGradient        0.9 \
	fdTest               no
lcao-params -1 1e-06 0.001
pcm-variant GLSSA13
spintype no-spin
subspace-rotation-factor 1 yes
symmetries automatic
symmetry-threshold 0.0001



---------- Setting up symmetries ----------

Found 48 point-group symmetries of the bravais lattice
Found 48 space-group symmetries with basis
Applied RMS atom displacement 0 bohrs to make symmetries exact.

---------- Initializing the Grid ----------
R = 
[          0    5.13062    5.13062  ]
[    5.13062          0    5.13062  ]
[    5.13062    5.13062          0  ]
unit cell volume = 270.109
G =
[  -0.612323   0.612323   0.612323  ]
[   0.612323  -0.612323   0.612323  ]
[   0.612323   0.612323  -0.612323  ]
Minimum fftbox size, Smin = [  36  36  36  ]
Chosen fftbox size, S = [  36  36  36  ]

---------- Initializing tighter grid for wavefunction operations ----------
R = 
[          0    5.13062    5.13062  ]
[    5.13062          0    5.13062  ]
[    5.13062    5.13062          0  ]
unit cell volume = 270.109
G =
[  -0.612323   0.612323   0.612323  ]
[   0.612323  -0.612323   0.612323  ]
[   0.612323   0.612323  -0.612323  ]
Minimum fftbox size, Smin = [  32  32  32  ]
Chosen fftbox size, S = [  32  32  32  ]

---------- Exchange Correlation functional ----------
Initalized PBE GGA exchange.
Initalized PBE GGA correlation.

---------- Setting up pseudopotentials ----------
Width of ionic core gaussian charges (only for fluid interactions / plotting) set to 0

Reading pseudopotential file '/Users/juanmendezvalderrama/Documents/JDFTX/build/pseudopotentials/GBRV/si_pbe.uspp':
  Title: Si.  Created by USPP 7.3.6 on 14-9-2013
  Reference state energy: -4.599342.  4 valence electrons in orbitals:
    |300>  occupation: 2  eigenvalue: -0.397366
    |310>  occupation: 2  eigenvalue: -0.149981
  lMax: 2  lLocal: 3  QijEcut: 5
  6 projectors sampled on a log grid with 627 points:
    l: 0  eig: -0.397364  rCut: 1.6
    l: 0  eig: 1.000000  rCut: 1.6
    l: 1  eig: -0.149982  rCut: 1.6
    l: 1  eig: 1.000000  rCut: 1.6
    l: 2  eig: -0.100000  rCut: 1.7
    l: 2  eig: 0.100000  rCut: 1.7
  Partial core density with radius 1.45
  Transforming core density to a uniform radial grid of dG=0.02 with 1833 points.
  Transforming local potential to a uniform radial grid of dG=0.02 with 1833 points.
  Transforming nonlocal projectors to a uniform radial grid of dG=0.02 with 432 points.
  Transforming density augmentations to a uniform radial grid of dG=0.02 with 1833 points.
  Transforming atomic orbitals to a uniform radial grid of dG=0.02 with 432 points.
  Core radius for overlap checks: 1.70 bohrs.

Initialized 1 species with 2 total atoms.

Folded 1 k-points by 8x8x8 to 512 k-points.

---------- Setting up k-points, bands, fillings ----------

WARNING: k-mesh symmetries are a subgroup of size 12
The effectively sampled k-mesh is a superset of the specified one,
and the answers need not match those with symmetries turned off.
Reduced to 60 k-points under symmetry. 
Computing the number of bands and number of electrons
Calculating initial fillings.
nElectrons:   8.000000   nBands: 4   nStates: 60

----- Setting up reduced wavefunction bases (one per k-point) -----
average nbasis = 1153.992 , ideal nbasis = 1153.925

---------- Setting up ewald sum ----------
Optimum gaussian width for ewald sums = 2.330237 bohr.
Real space sum over 1331 unit cells with max indices [  5  5  5  ]
Reciprocal space sum over 2197 terms with max indices [  6  6  6  ]

---------- Allocating electronic variables ----------
Initializing wave functions:  linear combination of atomic orbitals
Si pseudo-atom occupations:   s ( 2 )  p ( 2 )
	FillingsUpdate:  mu: +0.269663616  nElectrons: 8.000000
LCAOMinimize: Iter:   0  Etot: -7.8860103003171638  |grad|_K:  4.519e-05  alpha:  1.000e+00
	FillingsUpdate:  mu: +0.269603797  nElectrons: 8.000000
LCAOMinimize: Iter:   1  Etot: -7.8860150269619584  |grad|_K:  1.223e-06  alpha:  9.523e-01  linmin:  4.235e-04  cgtest: -2.423e-04  t[s]:      1.35
	FillingsUpdate:  mu: +0.269605265  nElectrons: 8.000000
LCAOMinimize: Iter:   2  Etot: -7.8860150305753205  |grad|_K:  1.794e-09  alpha:  9.937e-01  linmin: -2.450e-02  cgtest:  7.379e-02  t[s]:      1.59
LCAOMinimize: Encountered beta<0, resetting CG.
LCAOMinimize: 	Wrong curvature in test step, increasing alphaT to 2.981063e+00.
	FillingsUpdate:  mu: +0.269605266  nElectrons: 8.000000
LCAOMinimize: Iter:   3  Etot: -7.8860150305753400  |grad|_K:  2.032e-11  alpha: -2.175e+00  linmin: -2.065e-01  cgtest:  4.855e-01  t[s]:      1.83
LCAOMinimize: Encountered beta<0, resetting CG.
LCAOMinimize: Converged (|Delta Etot|<1.000000e-06 for 2 iters).


---- Citations for features of the code used in this run ----

   Software package:
      R. Sundararaman, K. Letchworth-Weaver, K.A. Schwarz, D. Gunceler, Y. Ozhabes and T.A. Arias, 'JDFTx: software for joint density-functional theory', SoftwareX 6, 278 (2017)

   gga-PBE exchange-correlation functional:
      J.P. Perdew, K. Burke and M. Ernzerhof, Phys. Rev. Lett. 77, 3865 (1996)

   Pseudopotentials:
      KF Garrity, JW Bennett, KM Rabe and D Vanderbilt, Comput. Mater. Sci. 81, 446 (2014)

   Total energy minimization:
      T.A. Arias, M.C. Payne and J.D. Joannopoulos, Phys. Rev. Lett. 69, 1077 (1992)

This list may not be complete. Please suggest additional citations or
report any other bugs at https://github.com/shankar1729/jdftx/issues

Initialization completed successfully at t[s]:      1.85


-------- Electronic minimization -----------
ElecMinimize: Iter:   0  Etot: -7.886015030575341  |grad|_K:  3.138e-04  alpha:  1.000e+00
ElecMinimize: Iter:   1  Etot: -7.936723886234354  |grad|_K:  1.044e-04  alpha:  1.856e+00  linmin: -8.180e-03  t[s]:      2.26
ElecMinimize: Iter:   2  Etot: -7.942301091629647  |grad|_K:  3.051e-05  alpha:  1.839e+00  linmin: -2.557e-05  t[s]:      2.48
ElecMinimize: Iter:   3  Etot: -7.942789095255376  |grad|_K:  1.418e-05  alpha:  1.891e+00  linmin: -9.202e-06  t[s]:      2.71
ElecMinimize: Iter:   4  Etot: -7.942928653559511  |grad|_K:  8.973e-06  alpha:  2.503e+00  linmin: -6.549e-05  t[s]:      2.93
ElecMinimize: Iter:   5  Etot: -7.942975545183525  |grad|_K:  4.484e-06  alpha:  2.101e+00  linmin: -2.081e-06  t[s]:      3.16
ElecMinimize: Iter:   6  Etot: -7.942986447134760  |grad|_K:  2.138e-06  alpha:  1.957e+00  linmin:  9.036e-06  t[s]:      3.38
ElecMinimize: Iter:   7  Etot: -7.942988788694054  |grad|_K:  9.877e-07  alpha:  1.848e+00  linmin:  4.193e-06  t[s]:      3.60
ElecMinimize: Iter:   8  Etot: -7.942989315665315  |grad|_K:  5.188e-07  alpha:  1.949e+00  linmin: -6.526e-08  t[s]:      3.83
ElecMinimize: Iter:   9  Etot: -7.942989465360545  |grad|_K:  2.876e-07  alpha:  2.007e+00  linmin: -5.759e-07  t[s]:      4.05
ElecMinimize: Iter:  10  Etot: -7.942989509626701  |grad|_K:  1.531e-07  alpha:  1.931e+00  linmin: -6.506e-07  t[s]:      4.27
ElecMinimize: Iter:  11  Etot: -7.942989522196823  |grad|_K:  8.226e-08  alpha:  1.936e+00  linmin:  1.028e-06  t[s]:      4.48
ElecMinimize: Iter:  12  Etot: -7.942989525953094  |grad|_K:  4.458e-08  alpha:  2.003e+00  linmin: -1.398e-06  t[s]:      4.69
ElecMinimize: Iter:  13  Etot: -7.942989527078860  |grad|_K:  2.486e-08  alpha:  2.044e+00  linmin:  1.021e-05  t[s]:      4.90
ElecMinimize: Converged (|Delta Etot|<1.000000e-08 for 2 iters).
Setting wave functions to eigenvectors of Hamiltonian

# Ionic positions in lattice coordinates:
ion Si   0.000000000000000   0.000000000000000   0.000000000000000 0
ion Si   0.250000000000000   0.250000000000000   0.250000000000000 0


# Forces in Lattice coordinates:
force Si   0.000000000000000  -0.000000000000000   0.000000000000000 0
force Si   0.000000000000000   0.000000000000000   0.000000000000000 0

# Energy components:
   Eewald =       -8.3994546412464199
       EH =        0.5577219406798255
     Eloc =       -2.1028163328125955
      Enl =        1.6299082140719154
      Exc =       -4.3107111987088054
 Exc_core =        1.6535544468665366
       KE =        3.0288080440706833
-------------------------------------
     Etot =       -7.9429895270788595

IonicMinimize: Iter:   0  Etot: -7.942989527078860  |grad|_K:  0.000e+00  t[s]:      4.97
IonicMinimize: Converged (|grad|_K<1.000000e-04).

#--- Lowdin population analysis ---
# oxidation-state Si +0.035 +0.035


Dumping 'Si.n' ... done
End date and time: Mon Mar  4 09:44:44 2019  (Duration: 0-0:00:04.99)
Done!
