
*************** JDFTx 1.4.2  ***************

Start date and time: Sun Mar  3 19:24:36 2019
Executable jdftx with command-line: -i water.in
Running on hosts (process indices):  Juans-MBP.lan1 (0)
Divided in process groups (process indices):  0 (0)
Resource initialization completed at t[s]:      0.00
Run totals: 1 processes, 12 threads, 0 GPUs


Input parsed successfully to the following command list (including defaults):

basis kpoint-dependent
coords-type Cartesian
core-overlap-check vector
coulomb-interaction Periodic
davidson-band-ratio 1.1
dump End None
dump-name $INPUT.$VAR
elec-cutoff 20 100
elec-eigen-algo Davidson
elec-ex-corr gga-PBE
electronic-minimize  \
	dirUpdateScheme      FletcherReeves \
	linminMethod         DirUpdateRecommended \
	nIterations          100 \
	history              15 \
	knormThreshold       0 \
	energyDiffThreshold  1e-08 \
	nEnergyDiff          2 \
	alphaTstart          1 \
	alphaTmin            1e-10 \
	updateTestStepSize   yes \
	alphaTreduceFactor   0.1 \
	alphaTincreaseFactor 3 \
	nAlphaAdjustMax      3 \
	wolfeEnergy          0.0001 \
	wolfeGradient        0.9 \
	fdTest               no
exchange-regularization WignerSeitzTruncated
fluid None
fluid-ex-corr lda-TF lda-PZ
fluid-gummel-loop 10 1.000000e-05
fluid-minimize  \
	dirUpdateScheme      PolakRibiere \
	linminMethod         DirUpdateRecommended \
	nIterations          100 \
	history              15 \
	knormThreshold       0 \
	energyDiffThreshold  0 \
	nEnergyDiff          2 \
	alphaTstart          1 \
	alphaTmin            1e-10 \
	updateTestStepSize   yes \
	alphaTreduceFactor   0.1 \
	alphaTincreaseFactor 3 \
	nAlphaAdjustMax      3 \
	wolfeEnergy          0.0001 \
	wolfeGradient        0.9 \
	fdTest               no
fluid-solvent H2O 55.338 ScalarEOS \
	epsBulk 78.4 \
	pMol 0.92466 \
	epsInf 1.77 \
	Pvap 1.06736e-10 \
	sigmaBulk 4.62e-05 \
	Rvdw 2.61727 \
	Res 1.42
forces-output-coords Positions
ion O   0.000000000000000   0.000000000000000   0.600540000000000 0
ion H   0.000000000000000   1.432390000000000  -0.600540000000000 1
ion H   0.000000000000000  -1.432390000000000  -0.600540000000000 1
ion-species GBRV/$ID_pbe.uspp
ion-width 0
ionic-minimize  \
	dirUpdateScheme      L-BFGS \
	linminMethod         DirUpdateRecommended \
	nIterations          0 \
	history              15 \
	knormThreshold       0.0001 \
	energyDiffThreshold  1e-06 \
	nEnergyDiff          2 \
	alphaTstart          1 \
	alphaTmin            1e-10 \
	updateTestStepSize   yes \
	alphaTreduceFactor   0.1 \
	alphaTincreaseFactor 3 \
	nAlphaAdjustMax      3 \
	wolfeEnergy          0.0001 \
	wolfeGradient        0.9 \
	fdTest               no
kpoint   0.000000000000   0.000000000000   0.000000000000  1.00000000000000
kpoint-folding 1 1 1 
latt-move-scale 1 1 1
latt-scale 1 1 1 
lattice  \
	  15.000000000000000    0.000000000000000    0.000000000000000  \
	   0.000000000000000   17.864799999999999    0.000000000000000  \
	   0.000000000000000    0.000000000000000   16.201100000000000 
lattice-minimize  \
	dirUpdateScheme      L-BFGS \
	linminMethod         DirUpdateRecommended \
	nIterations          0 \
	history              15 \
	knormThreshold       0 \
	energyDiffThreshold  1e-06 \
	nEnergyDiff          2 \
	alphaTstart          1 \
	alphaTmin            1e-10 \
	updateTestStepSize   yes \
	alphaTreduceFactor   0.1 \
	alphaTincreaseFactor 3 \
	nAlphaAdjustMax      3 \
	wolfeEnergy          0.0001 \
	wolfeGradient        0.9 \
	fdTest               no
lcao-params -1 1e-06 0.001
pcm-variant GLSSA13
spintype no-spin
subspace-rotation-factor 1 yes
symmetries automatic
symmetry-threshold 0.0001



---------- Setting up symmetries ----------

Found 8 point-group symmetries of the bravais lattice
Found 4 space-group symmetries with basis
Applied RMS atom displacement 0 bohrs to make symmetries exact.

---------- Initializing the Grid ----------
R = 
[         15          0          0  ]
[          0    17.8648          0  ]
[          0          0    16.2011  ]
unit cell volume = 4341.44
G =
[   0.418879          0          0  ]
[          0   0.351708          0  ]
[          0          0   0.387825  ]
Minimum fftbox size, Smin = [  68  84  76  ]
Chosen fftbox size, S = [  70  84  80  ]

---------- Initializing tighter grid for wavefunction operations ----------
R = 
[         15          0          0  ]
[          0    17.8648          0  ]
[          0          0    16.2011  ]
unit cell volume = 4341.44
G =
[   0.418879          0          0  ]
[          0   0.351708          0  ]
[          0          0   0.387825  ]
Minimum fftbox size, Smin = [  64  72  68  ]
Chosen fftbox size, S = [  64  72  70  ]

---------- Exchange Correlation functional ----------
Initalized PBE GGA exchange.
Initalized PBE GGA correlation.

---------- Setting up pseudopotentials ----------
Width of ionic core gaussian charges (only for fluid interactions / plotting) set to 0

Reading pseudopotential file '/Users/juanmendezvalderrama/Documents/JDFTX/build/pseudopotentials/GBRV/o_pbe.uspp':
  Title: O.  Created by USPP 7.3.6 on 3-2-2014
  Reference state energy: -15.894388.  6 valence electrons in orbitals:
    |200>  occupation: 2  eigenvalue: -0.878823
    |210>  occupation: 4  eigenvalue: -0.332131
  lMax: 2  lLocal: 2  QijEcut: 6
  5 projectors sampled on a log grid with 511 points:
    l: 0  eig: -0.878823  rCut: 1.25
    l: 0  eig: 0.000000  rCut: 1.25
    l: 1  eig: -0.332132  rCut: 1.25
    l: 1  eig: 0.000000  rCut: 1.25
    l: 2  eig: 1.000000  rCut: 1.25
  Partial core density with radius 0.7
  Transforming core density to a uniform radial grid of dG=0.02 with 1303 points.
  Transforming local potential to a uniform radial grid of dG=0.02 with 1303 points.
  Transforming nonlocal projectors to a uniform radial grid of dG=0.02 with 432 points.
  Transforming density augmentations to a uniform radial grid of dG=0.02 with 1303 points.
  Transforming atomic orbitals to a uniform radial grid of dG=0.02 with 432 points.
  Core radius for overlap checks: 1.25 bohrs.

Reading pseudopotential file '/Users/juanmendezvalderrama/Documents/JDFTX/build/pseudopotentials/GBRV/h_pbe.uspp':
  Title: H.  Created by USPP 7.3.6 on 2-4-15
  Reference state energy: -0.458849.  1 valence electrons in orbitals:
    |100>  occupation: 1  eigenvalue: -0.238595
  lMax: 0  lLocal: 1  QijEcut: 6
  2 projectors sampled on a log grid with 395 points:
    l: 0  eig: -0.238595  rCut: 1.2
    l: 0  eig: 1.000000  rCut: 1.2
  Transforming local potential to a uniform radial grid of dG=0.02 with 1303 points.
  Transforming nonlocal projectors to a uniform radial grid of dG=0.02 with 432 points.
  Transforming density augmentations to a uniform radial grid of dG=0.02 with 1303 points.
  Transforming atomic orbitals to a uniform radial grid of dG=0.02 with 432 points.
  Core radius for overlap checks: 1.20 bohrs.

Initialized 2 species with 3 total atoms.

Folded 1 k-points by 1x1x1 to 1 k-points.

---------- Setting up k-points, bands, fillings ----------
No reducable k-points. 
Computing the number of bands and number of electrons
Calculating initial fillings.
nElectrons:   8.000000   nBands: 4   nStates: 1

----- Setting up reduced wavefunction bases (one per k-point) -----
average nbasis = 18537.000 , ideal nbasis = 18546.968

---------- Setting up ewald sum ----------
Optimum gaussian width for ewald sums = 5.419191 bohr.
Real space sum over 1089 unit cells with max indices [  5  4  5  ]
Reciprocal space sum over 2197 terms with max indices [  6  6  6  ]

---------- Allocating electronic variables ----------
Initializing wave functions:  linear combination of atomic orbitals
O pseudo-atom occupations:   s ( 2 )  p ( 4 )
H pseudo-atom occupations:   s ( 1 )
	FillingsUpdate:  mu: -0.000000000  nElectrons: 8.000000
LCAOMinimize: Iter:   0  Etot: -17.0511230968337202  |grad|_K:  7.452e-02  alpha:  1.000e+00
	FillingsUpdate:  mu: -0.000000000  nElectrons: 8.000000
LCAOMinimize: Iter:   1  Etot: -17.1226484761549642  |grad|_K:  6.897e-03  alpha:  4.510e-01  linmin: -4.846e-01  cgtest:  7.633e-01  t[s]:      3.69
LCAOMinimize: Encountered beta<0, resetting CG.
	FillingsUpdate:  mu: -0.000000000  nElectrons: 8.000000
LCAOMinimize: Iter:   2  Etot: -17.1233091677175508  |grad|_K:  2.022e-03  alpha:  5.723e-01  linmin:  4.385e-02  cgtest: -1.433e-01  t[s]:      4.03
	FillingsUpdate:  mu: -0.000000000  nElectrons: 8.000000
LCAOMinimize: Iter:   3  Etot: -17.1233766713812408  |grad|_K:  4.482e-04  alpha:  7.072e-01  linmin:  4.487e-04  cgtest:  4.406e-01  t[s]:      4.36
LCAOMinimize: Encountered beta<0, resetting CG.
LCAOMinimize: None of the convergence criteria satisfied after 3 iterations.


---- Citations for features of the code used in this run ----

   Software package:
      R. Sundararaman, K. Letchworth-Weaver, K.A. Schwarz, D. Gunceler, Y. Ozhabes and T.A. Arias, 'JDFTx: software for joint density-functional theory', SoftwareX 6, 278 (2017)

   gga-PBE exchange-correlation functional:
      J.P. Perdew, K. Burke and M. Ernzerhof, Phys. Rev. Lett. 77, 3865 (1996)

   Pseudopotentials:
      KF Garrity, JW Bennett, KM Rabe and D Vanderbilt, Comput. Mater. Sci. 81, 446 (2014)

   Total energy minimization:
      T.A. Arias, M.C. Payne and J.D. Joannopoulos, Phys. Rev. Lett. 69, 1077 (1992)

This list may not be complete. Please suggest additional citations or
report any other bugs at https://github.com/shankar1729/jdftx/issues

Initialization completed successfully at t[s]:      4.37


-------- Electronic minimization -----------
ElecMinimize: Iter:   0  Etot: -17.123376671381244  |grad|_K:  1.644e-03  alpha:  1.000e+00
ElecMinimize: Iter:   1  Etot: -17.242425434404847  |grad|_K:  5.652e-04  alpha:  5.912e-01  linmin: -1.528e-02  t[s]:      5.11
ElecMinimize: Iter:   2  Etot: -17.259391005116445  |grad|_K:  3.457e-04  alpha:  7.099e-01  linmin: -7.407e-03  t[s]:      5.44
ElecMinimize: Iter:   3  Etot: -17.265553983463072  |grad|_K:  1.825e-04  alpha:  6.904e-01  linmin:  3.661e-03  t[s]:      5.76
ElecMinimize: Iter:   4  Etot: -17.267398672802276  |grad|_K:  8.610e-05  alpha:  7.496e-01  linmin: -2.295e-03  t[s]:      6.09
ElecMinimize: Iter:   5  Etot: -17.267884087737567  |grad|_K:  4.647e-05  alpha:  8.819e-01  linmin:  3.050e-03  t[s]:      6.41
ElecMinimize: Iter:   6  Etot: -17.268016102634711  |grad|_K:  2.800e-05  alpha:  8.266e-01  linmin: -6.725e-04  t[s]:      6.73
ElecMinimize: Iter:   7  Etot: -17.268061381617279  |grad|_K:  1.585e-05  alpha:  7.782e-01  linmin:  4.031e-04  t[s]:      7.05
ElecMinimize: Iter:   8  Etot: -17.268074219248266  |grad|_K:  8.123e-06  alpha:  6.892e-01  linmin: -2.312e-04  t[s]:      7.38
ElecMinimize: Iter:   9  Etot: -17.268077624941771  |grad|_K:  4.190e-06  alpha:  6.960e-01  linmin:  8.649e-05  t[s]:      7.70
ElecMinimize: Iter:  10  Etot: -17.268078633308626  |grad|_K:  1.981e-06  alpha:  7.746e-01  linmin: -1.332e-04  t[s]:      8.03
ElecMinimize: Iter:  11  Etot: -17.268078870026944  |grad|_K:  9.952e-07  alpha:  8.135e-01  linmin:  1.840e-05  t[s]:      8.36
ElecMinimize: Iter:  12  Etot: -17.268078924093977  |grad|_K:  4.953e-07  alpha:  7.362e-01  linmin: -1.634e-05  t[s]:      8.69
ElecMinimize: Iter:  13  Etot: -17.268078936566639  |grad|_K:  2.791e-07  alpha:  6.857e-01  linmin:  1.449e-06  t[s]:      9.02
ElecMinimize: Iter:  14  Etot: -17.268078940605310  |grad|_K:  1.401e-07  alpha:  6.994e-01  linmin:  2.998e-05  t[s]:      9.36
ElecMinimize: Iter:  15  Etot: -17.268078941702328  |grad|_K:  6.462e-08  alpha:  7.540e-01  linmin: -1.569e-05  t[s]:      9.69
ElecMinimize: Converged (|Delta Etot|<1.000000e-08 for 2 iters).
Setting wave functions to eigenvectors of Hamiltonian

# Ionic positions in cartesian coordinates:
ion O   0.000000000000000   0.000000000000000   0.600540000000000 0
ion H   0.000000000000000   1.432390000000000  -0.600540000000000 1
ion H   0.000000000000000  -1.432390000000000  -0.600540000000000 1


# Forces in Cartesian coordinates:
force O   0.000000000000000   0.000000000000000  -0.016232609169576 0
force H   0.000000000000000  -0.002520871940942   0.008106605245447 1
force H   0.000000000000000   0.002520871940942   0.008106605245447 1

# Energy components:
   Eewald =        1.2647215169647201
       EH =       15.7941634168946550
     Eloc =      -40.5945307890733247
      Enl =        2.2207840864030004
      Exc =       -4.3309451337494851
 Exc_core =        0.0650488929966548
       KE =        8.3126790678614544
-------------------------------------
     Etot =      -17.2680789417023277

IonicMinimize: Iter:   0  Etot: -17.268078941702328  |grad|_K:  4.901e-03  t[s]:      9.89
IonicMinimize: None of the convergence criteria satisfied after 0 iterations.

#--- Lowdin population analysis ---
# oxidation-state O -0.727
# oxidation-state H +0.420 +0.420

End date and time: Sun Mar  3 19:24:46 2019  (Duration: 0-0:00:09.90)
Done!
