CRYSTAL
PRIMVEC
  7.937658   0.000000   0.000000
  0.000000   9.357652   0.000000
  0.000000   0.000000   8.647655
PRIMCOORD
3 1
 8   0.000000   0.000000  -0.354999
 1   0.000000   0.770292   0.250441
 1   0.000000  -0.770292   0.250441
