
*************** JDFTx 1.4.2  ***************

Start date and time: Sun Mar  3 19:42:09 2019
Executable jdftx with command-line: -i water.in
Running on hosts (process indices):  Juans-MBP.lan1 (0)
Divided in process groups (process indices):  0 (0)
Resource initialization completed at t[s]:      0.00
Run totals: 1 processes, 12 threads, 0 GPUs


Input parsed successfully to the following command list (including defaults):

basis kpoint-dependent
coords-type Cartesian
core-overlap-check vector
coulomb-interaction Periodic
davidson-band-ratio 1.1
dump End None
dump-name $INPUT.$VAR
elec-cutoff 20 100
elec-eigen-algo Davidson
elec-ex-corr gga-PBE
electronic-minimize  \
	dirUpdateScheme      FletcherReeves \
	linminMethod         DirUpdateRecommended \
	nIterations          100 \
	history              15 \
	knormThreshold       0 \
	energyDiffThreshold  1e-08 \
	nEnergyDiff          2 \
	alphaTstart          1 \
	alphaTmin            1e-10 \
	updateTestStepSize   yes \
	alphaTreduceFactor   0.1 \
	alphaTincreaseFactor 3 \
	nAlphaAdjustMax      3 \
	wolfeEnergy          0.0001 \
	wolfeGradient        0.9 \
	fdTest               no
exchange-regularization WignerSeitzTruncated
fluid None
fluid-ex-corr lda-TF lda-PZ
fluid-gummel-loop 10 1.000000e-05
fluid-minimize  \
	dirUpdateScheme      PolakRibiere \
	linminMethod         DirUpdateRecommended \
	nIterations          100 \
	history              15 \
	knormThreshold       0 \
	energyDiffThreshold  0 \
	nEnergyDiff          2 \
	alphaTstart          1 \
	alphaTmin            1e-10 \
	updateTestStepSize   yes \
	alphaTreduceFactor   0.1 \
	alphaTincreaseFactor 3 \
	nAlphaAdjustMax      3 \
	wolfeEnergy          0.0001 \
	wolfeGradient        0.9 \
	fdTest               no
fluid-solvent H2O 55.338 ScalarEOS \
	epsBulk 78.4 \
	pMol 0.92466 \
	epsInf 1.77 \
	Pvap 1.06736e-10 \
	sigmaBulk 4.62e-05 \
	Rvdw 2.61727 \
	Res 1.42
forces-output-coords Positions
ion O   0.000000000000000   0.000000000000000   0.600540000000000 0
ion H   0.000000000000000   1.432390000000000  -0.600540000000000 1
ion H   0.000000000000000  -1.432390000000000  -0.600540000000000 1
ion-species GBRV/$ID_pbe.uspp
ion-width 0
ionic-minimize  \
	dirUpdateScheme      L-BFGS \
	linminMethod         DirUpdateRecommended \
	nIterations          0 \
	history              15 \
	knormThreshold       0.0001 \
	energyDiffThreshold  1e-06 \
	nEnergyDiff          2 \
	alphaTstart          1 \
	alphaTmin            1e-10 \
	updateTestStepSize   yes \
	alphaTreduceFactor   0.1 \
	alphaTincreaseFactor 3 \
	nAlphaAdjustMax      3 \
	wolfeEnergy          0.0001 \
	wolfeGradient        0.9 \
	fdTest               no
kpoint   0.000000000000   0.000000000000   0.000000000000  1.00000000000000
kpoint-folding 1 1 1 
latt-move-scale 1 1 1
latt-scale 1 1 1 
lattice  \
	  30.000000000000000    0.000000000000000    0.000000000000000  \
	   0.000000000000000   32.864800000000002    0.000000000000000  \
	   0.000000000000000    0.000000000000000   31.201100000000000 
lattice-minimize  \
	dirUpdateScheme      L-BFGS \
	linminMethod         DirUpdateRecommended \
	nIterations          0 \
	history              15 \
	knormThreshold       0 \
	energyDiffThreshold  1e-06 \
	nEnergyDiff          2 \
	alphaTstart          1 \
	alphaTmin            1e-10 \
	updateTestStepSize   yes \
	alphaTreduceFactor   0.1 \
	alphaTincreaseFactor 3 \
	nAlphaAdjustMax      3 \
	wolfeEnergy          0.0001 \
	wolfeGradient        0.9 \
	fdTest               no
lcao-params -1 1e-06 0.001
pcm-variant GLSSA13
spintype no-spin
subspace-rotation-factor 1 yes
symmetries automatic
symmetry-threshold 0.0001



---------- Setting up symmetries ----------

Found 8 point-group symmetries of the bravais lattice
Found 4 space-group symmetries with basis
Applied RMS atom displacement 0 bohrs to make symmetries exact.

---------- Initializing the Grid ----------
R = 
[         30          0          0  ]
[          0    32.8648          0  ]
[          0          0    31.2011  ]
unit cell volume = 30762.5
G =
[    0.20944          0          0  ]
[          0   0.191183          0  ]
[          0          0   0.201377  ]
Minimum fftbox size, Smin = [  136  148  144  ]
Chosen fftbox size, S = [  140  150  144  ]

---------- Initializing tighter grid for wavefunction operations ----------
R = 
[         30          0          0  ]
[          0    32.8648          0  ]
[          0          0    31.2011  ]
unit cell volume = 30762.5
G =
[    0.20944          0          0  ]
[          0   0.191183          0  ]
[          0          0   0.201377  ]
Minimum fftbox size, Smin = [  124  136  128  ]
Chosen fftbox size, S = [  126  140  128  ]

---------- Exchange Correlation functional ----------
Initalized PBE GGA exchange.
Initalized PBE GGA correlation.

---------- Setting up pseudopotentials ----------
Width of ionic core gaussian charges (only for fluid interactions / plotting) set to 0

Reading pseudopotential file '/Users/juanmendezvalderrama/Documents/JDFTX/build/pseudopotentials/GBRV/o_pbe.uspp':
  Title: O.  Created by USPP 7.3.6 on 3-2-2014
  Reference state energy: -15.894388.  6 valence electrons in orbitals:
    |200>  occupation: 2  eigenvalue: -0.878823
    |210>  occupation: 4  eigenvalue: -0.332131
  lMax: 2  lLocal: 2  QijEcut: 6
  5 projectors sampled on a log grid with 511 points:
    l: 0  eig: -0.878823  rCut: 1.25
    l: 0  eig: 0.000000  rCut: 1.25
    l: 1  eig: -0.332132  rCut: 1.25
    l: 1  eig: 0.000000  rCut: 1.25
    l: 2  eig: 1.000000  rCut: 1.25
  Partial core density with radius 0.7
  Transforming core density to a uniform radial grid of dG=0.02 with 1261 points.
  Transforming local potential to a uniform radial grid of dG=0.02 with 1261 points.
  Transforming nonlocal projectors to a uniform radial grid of dG=0.02 with 432 points.
  Transforming density augmentations to a uniform radial grid of dG=0.02 with 1261 points.
  Transforming atomic orbitals to a uniform radial grid of dG=0.02 with 432 points.
  Core radius for overlap checks: 1.25 bohrs.

Reading pseudopotential file '/Users/juanmendezvalderrama/Documents/JDFTX/build/pseudopotentials/GBRV/h_pbe.uspp':
  Title: H.  Created by USPP 7.3.6 on 2-4-15
  Reference state energy: -0.458849.  1 valence electrons in orbitals:
    |100>  occupation: 1  eigenvalue: -0.238595
  lMax: 0  lLocal: 1  QijEcut: 6
  2 projectors sampled on a log grid with 395 points:
    l: 0  eig: -0.238595  rCut: 1.2
    l: 0  eig: 1.000000  rCut: 1.2
  Transforming local potential to a uniform radial grid of dG=0.02 with 1261 points.
  Transforming nonlocal projectors to a uniform radial grid of dG=0.02 with 432 points.
  Transforming density augmentations to a uniform radial grid of dG=0.02 with 1261 points.
  Transforming atomic orbitals to a uniform radial grid of dG=0.02 with 432 points.
  Core radius for overlap checks: 1.20 bohrs.

Initialized 2 species with 3 total atoms.

Folded 1 k-points by 1x1x1 to 1 k-points.

---------- Setting up k-points, bands, fillings ----------
No reducable k-points. 
Computing the number of bands and number of electrons
Calculating initial fillings.
nElectrons:   8.000000   nBands: 4   nStates: 1

----- Setting up reduced wavefunction bases (one per k-point) -----
average nbasis = 131441.000 , ideal nbasis = 131419.904

---------- Setting up ewald sum ----------
Optimum gaussian width for ewald sums = 10.408718 bohr.
Real space sum over 1331 unit cells with max indices [  5  5  5  ]
Reciprocal space sum over 2197 terms with max indices [  6  6  6  ]

---------- Allocating electronic variables ----------
Initializing wave functions:  linear combination of atomic orbitals
O pseudo-atom occupations:   s ( 2 )  p ( 4 )
H pseudo-atom occupations:   s ( 1 )
	FillingsUpdate:  mu: -0.000000000  nElectrons: 8.000000
LCAOMinimize: Iter:   0  Etot: -17.0502474121215286  |grad|_K:  7.481e-02  alpha:  1.000e+00
	FillingsUpdate:  mu: -0.000000000  nElectrons: 8.000000
LCAOMinimize: Iter:   1  Etot: -17.1222530830666955  |grad|_K:  6.875e-03  alpha:  4.507e-01  linmin: -4.840e-01  cgtest:  7.596e-01  t[s]:     15.59
LCAOMinimize: Encountered beta<0, resetting CG.
	FillingsUpdate:  mu: -0.000000000  nElectrons: 8.000000
LCAOMinimize: Iter:   2  Etot: -17.1229108096889711  |grad|_K:  2.032e-03  alpha:  5.734e-01  linmin:  4.415e-02  cgtest: -1.447e-01  t[s]:     18.36
	FillingsUpdate:  mu: -0.000000000  nElectrons: 8.000000
LCAOMinimize: Iter:   3  Etot: -17.1229785356713187  |grad|_K:  4.550e-04  alpha:  7.037e-01  linmin:  4.510e-04  cgtest:  4.443e-01  t[s]:     21.11
LCAOMinimize: Encountered beta<0, resetting CG.
LCAOMinimize: None of the convergence criteria satisfied after 3 iterations.


---- Citations for features of the code used in this run ----

   Software package:
      R. Sundararaman, K. Letchworth-Weaver, K.A. Schwarz, D. Gunceler, Y. Ozhabes and T.A. Arias, 'JDFTx: software for joint density-functional theory', SoftwareX 6, 278 (2017)

   gga-PBE exchange-correlation functional:
      J.P. Perdew, K. Burke and M. Ernzerhof, Phys. Rev. Lett. 77, 3865 (1996)

   Pseudopotentials:
      KF Garrity, JW Bennett, KM Rabe and D Vanderbilt, Comput. Mater. Sci. 81, 446 (2014)

   Total energy minimization:
      T.A. Arias, M.C. Payne and J.D. Joannopoulos, Phys. Rev. Lett. 69, 1077 (1992)

This list may not be complete. Please suggest additional citations or
report any other bugs at https://github.com/shankar1729/jdftx/issues

Initialization completed successfully at t[s]:     21.14


-------- Electronic minimization -----------
ElecMinimize: Iter:   0  Etot: -17.122978535671308  |grad|_K:  6.178e-04  alpha:  1.000e+00
ElecMinimize: Iter:   1  Etot: -17.242206762912133  |grad|_K:  2.125e-04  alpha:  5.913e-01  linmin: -1.528e-02  t[s]:     26.67
ElecMinimize: Iter:   2  Etot: -17.259235509878046  |grad|_K:  1.300e-04  alpha:  7.106e-01  linmin: -7.418e-03  t[s]:     29.32
ElecMinimize: Iter:   3  Etot: -17.265409325837823  |grad|_K:  6.864e-05  alpha:  6.901e-01  linmin:  3.639e-03  t[s]:     31.95
ElecMinimize: Iter:   4  Etot: -17.267257916423382  |grad|_K:  3.238e-05  alpha:  7.487e-01  linmin: -2.297e-03  t[s]:     34.63
ElecMinimize: Iter:   5  Etot: -17.267743712637760  |grad|_K:  1.741e-05  alpha:  8.803e-01  linmin:  3.031e-03  t[s]:     37.29
ElecMinimize: Iter:   6  Etot: -17.267875123705178  |grad|_K:  1.041e-05  alpha:  8.273e-01  linmin: -6.849e-04  t[s]:     39.93
ElecMinimize: Iter:   7  Etot: -17.267919158191560  |grad|_K:  5.957e-06  alpha:  7.718e-01  linmin:  3.720e-04  t[s]:     42.56
ElecMinimize: Iter:   8  Etot: -17.267932378149339  |grad|_K:  3.140e-06  alpha:  7.090e-01  linmin: -2.691e-04  t[s]:     45.19
ElecMinimize: Iter:   9  Etot: -17.267935961628563  |grad|_K:  1.590e-06  alpha:  6.913e-01  linmin:  7.981e-05  t[s]:     47.84
ElecMinimize: Iter:  10  Etot: -17.267936985871600  |grad|_K:  7.597e-07  alpha:  7.702e-01  linmin: -1.458e-04  t[s]:     50.47
ElecMinimize: Iter:  11  Etot: -17.267937233404581  |grad|_K:  3.826e-07  alpha:  8.156e-01  linmin:  2.622e-06  t[s]:     53.12
ElecMinimize: Iter:  12  Etot: -17.267937292334949  |grad|_K:  2.097e-07  alpha:  7.656e-01  linmin: -3.068e-05  t[s]:     55.76
ElecMinimize: Iter:  13  Etot: -17.267937309552330  |grad|_K:  1.283e-07  alpha:  7.450e-01  linmin:  2.285e-06  t[s]:     58.68
ElecMinimize: Iter:  14  Etot: -17.267937315859882  |grad|_K:  7.081e-08  alpha:  7.287e-01  linmin: -3.433e-05  t[s]:     61.37
ElecMinimize: Iter:  15  Etot: -17.267937318023002  |grad|_K:  3.705e-08  alpha:  8.204e-01  linmin: -2.095e-05  t[s]:     64.03
ElecMinimize: Converged (|Delta Etot|<1.000000e-08 for 2 iters).
Setting wave functions to eigenvectors of Hamiltonian

# Ionic positions in cartesian coordinates:
ion O   0.000000000000000   0.000000000000000   0.600540000000000 0
ion H   0.000000000000000   1.432390000000000  -0.600540000000000 1
ion H   0.000000000000000  -1.432390000000000  -0.600540000000000 1


# Forces in Cartesian coordinates:
force O   0.000000000000000   0.000000000000000  -0.016476193351337 0
force H   0.000000000000000  -0.002416218434299   0.008205428290531 1
force H   0.000000000000000   0.002416218434299   0.008205428290531 1

# Energy components:
   Eewald =        3.8800083329608643
       EH =       18.3570996547896641
     Eloc =      -45.7722828328276989
      Enl =        2.2206481288406001
      Exc =       -4.3306284471346821
 Exc_core =        0.0650487911669337
       KE =        8.3121690541813180
-------------------------------------
     Etot =      -17.2679373180230016

IonicMinimize: Iter:   0  Etot: -17.267937318023002  |grad|_K:  4.939e-03  t[s]:     65.58
IonicMinimize: None of the convergence criteria satisfied after 0 iterations.

#--- Lowdin population analysis ---
# oxidation-state O -0.725
# oxidation-state H +0.420 +0.420

End date and time: Sun Mar  3 19:43:14 2019  (Duration: 0-0:01:05.61)
Done!
