
*************** JDFTx 1.4.2  ***************

Start date and time: Sun Mar  3 21:43:10 2019
Executable jdftx with command-line: -i Hatom.in
Running on hosts (process indices):  Juans-MBP.lan1 (0)
Divided in process groups (process indices):  0 (0)
Resource initialization completed at t[s]:      0.00
Run totals: 1 processes, 12 threads, 0 GPUs


Input parsed successfully to the following command list (including defaults):

basis kpoint-dependent
coords-type Lattice
core-overlap-check vector
coulomb-interaction Isolated
coulomb-truncation-embed 0 0 0
davidson-band-ratio 1.1
dump End BandEigs
dump-name Hatom.$VAR
elec-cutoff 30
elec-eigen-algo Davidson
elec-ex-corr Hartree-Fock
elec-initial-magnetization 1.000000 yes
electronic-minimize  \
	dirUpdateScheme      FletcherReeves \
	linminMethod         DirUpdateRecommended \
	nIterations          100 \
	history              15 \
	knormThreshold       0 \
	energyDiffThreshold  1e-08 \
	nEnergyDiff          2 \
	alphaTstart          1 \
	alphaTmin            1e-10 \
	updateTestStepSize   yes \
	alphaTreduceFactor   0.1 \
	alphaTincreaseFactor 3 \
	nAlphaAdjustMax      3 \
	wolfeEnergy          0.0001 \
	wolfeGradient        0.9 \
	fdTest               no
exchange-regularization None
fluid None
fluid-ex-corr lda-TF lda-PZ
fluid-gummel-loop 10 1.000000e-05
fluid-minimize  \
	dirUpdateScheme      PolakRibiere \
	linminMethod         DirUpdateRecommended \
	nIterations          100 \
	history              15 \
	knormThreshold       0 \
	energyDiffThreshold  0 \
	nEnergyDiff          2 \
	alphaTstart          1 \
	alphaTmin            1e-10 \
	updateTestStepSize   yes \
	alphaTreduceFactor   0.1 \
	alphaTincreaseFactor 3 \
	nAlphaAdjustMax      3 \
	wolfeEnergy          0.0001 \
	wolfeGradient        0.9 \
	fdTest               no
fluid-solvent H2O 55.338 ScalarEOS \
	epsBulk 78.4 \
	pMol 0.92466 \
	epsInf 1.77 \
	Pvap 1.06736e-10 \
	sigmaBulk 4.62e-05 \
	Rvdw 2.61727 \
	Res 1.42
forces-output-coords Positions
ion H   0.000000000000000   0.000000000000000   0.000000000000000 1
ion-species SG15/$ID_ONCV_PBE.upf
ion-width 0
ionic-minimize  \
	dirUpdateScheme      L-BFGS \
	linminMethod         DirUpdateRecommended \
	nIterations          0 \
	history              15 \
	knormThreshold       0.0001 \
	energyDiffThreshold  1e-06 \
	nEnergyDiff          2 \
	alphaTstart          1 \
	alphaTmin            1e-10 \
	updateTestStepSize   yes \
	alphaTreduceFactor   0.1 \
	alphaTincreaseFactor 3 \
	nAlphaAdjustMax      3 \
	wolfeEnergy          0.0001 \
	wolfeGradient        0.9 \
	fdTest               no
kpoint   0.000000000000   0.000000000000   0.000000000000  1.00000000000000
kpoint-folding 1 1 1 
latt-move-scale 1 1 1
latt-scale 1 1 1 
lattice Cubic 15
lattice-minimize  \
	dirUpdateScheme      L-BFGS \
	linminMethod         DirUpdateRecommended \
	nIterations          0 \
	history              15 \
	knormThreshold       0 \
	energyDiffThreshold  1e-06 \
	nEnergyDiff          2 \
	alphaTstart          1 \
	alphaTmin            1e-10 \
	updateTestStepSize   yes \
	alphaTreduceFactor   0.1 \
	alphaTincreaseFactor 3 \
	nAlphaAdjustMax      3 \
	wolfeEnergy          0.0001 \
	wolfeGradient        0.9 \
	fdTest               no
lcao-params -1 1e-06 0.001
pcm-variant GLSSA13
spintype z-spin
subspace-rotation-factor 1 yes
symmetries automatic
symmetry-threshold 0.0001



---------- Setting up symmetries ----------

Found 48 point-group symmetries of the bravais lattice
Found 48 space-group symmetries with basis
Applied RMS atom displacement 0 bohrs to make symmetries exact.

---------- Initializing the Grid ----------
R = 
[         15          0          0  ]
[          0         15          0  ]
[          0          0         15  ]
unit cell volume = 3375
G =
[   0.418879          0          0  ]
[          0   0.418879          0  ]
[          0          0   0.418879  ]
Minimum fftbox size, Smin = [  76  76  76  ]
Chosen fftbox size, S = [  80  80  80  ]

---------- Exchange Correlation functional ----------
Will include 1 x exact exchange.

---------- Setting up pseudopotentials ----------
Width of ionic core gaussian charges (only for fluid interactions / plotting) set to 0

Reading pseudopotential file '/Users/juanmendezvalderrama/Documents/JDFTX/build/pseudopotentials/SG15/h_ONCV_PBE.upf':
  'H' pseudopotential, 'PBE' functional
  Generated using ONCVPSP code by D. R. Hamann
  Author: Martin Schlipf and Francois Gygi  Date: 150915.
  1 valence electrons, 1 orbitals, 2 projectors, 1166 radial grid points, with lMax = 0
  Transforming local potential to a uniform radial grid of dG=0.02 with 1457 points.
  Transforming nonlocal projectors to a uniform radial grid of dG=0.02 with 528 points.
    1S    l: 0   occupation:  1.0   eigenvalue: -0.238602
  Transforming atomic orbitals to a uniform radial grid of dG=0.02 with 528 points.
  Core radius for overlap checks: 1.01 bohrs.
  Reading pulay file /Users/juanmendezvalderrama/Documents/JDFTX/build/pseudopotentials/SG15/h_ONCV_PBE.pulay ... using dE_dnG = -8.245991e-05 computed for Ecut = 30.

Initialized 1 species with 1 total atoms.

Folded 1 k-points by 1x1x1 to 1 k-points.

---------- Setting up k-points, bands, fillings ----------
No reducable k-points. 
Computing the number of bands and number of electrons
Calculating initial fillings.
nElectrons:   1.000000   nBands: 1   nStates: 2

----- Setting up reduced wavefunction bases (one per k-point) -----
average nbasis = 26529.000 , ideal nbasis = 26488.030

----- Initializing Supercell corresponding to k-point mesh -----
Lattice vector linear combinations in supercell:
[   1   0   0  ]
[   0   1   0  ]
[   0   0   1  ]
Supercell lattice vectors:
[  15  0  0  ]
[  0  15  0  ]
[  0  0  15  ]

---------- Setting up coulomb interaction ----------
Setting up double-sized grid for truncated Coulomb potentials:
R = 
[         30          0          0  ]
[          0         30          0  ]
[          0          0         30  ]
unit cell volume = 27000
G =
[    0.20944          0          0  ]
[          0    0.20944          0  ]
[          0          0    0.20944  ]
Chosen fftbox size, S = [  160  160  160  ]
Integer grid location selected as the embedding center:
   Grid: [  0  0  0  ]
   Lattice: [  0  0  0  ]
   Cartesian: [  0  0  0  ]
Constructing Wigner-Seitz cell: 6 faces (6 quadrilaterals, 0 hexagons)
Range-separation parameter for embedded mesh potentials due to point charges: 0.546274 bohrs.
Constructing Wigner-Seitz cell: 6 faces (6 quadrilaterals, 0 hexagons)
Gaussian width for range separation: 1.58054 bohrs.
FFT grid for long-range part: [ 160 160 160 ].
Planning fourier transform ... Done.
Computing truncated long-range part in real space ... Done.
Adding short-range part in reciprocal space ... Done.

-------- Setting up exchange kernel --------
Using previously initialized isolated coulomb kernel.
Creating Wigner-Seitz truncated kernel on k-point supercell with sample count [  162 162 162 ]
Constructing Wigner-Seitz cell: 6 faces (6 quadrilaterals, 0 hexagons)
Gaussian width for range separation: 1.58054 bohrs.
FFT grid for long-range part: [ 162 162 162 ].
Planning fourier transform ... Done.
Computing truncated long-range part in real space ... Done.
Adding short-range part in reciprocal space ... Done.
Splitting supercell kernel to unit-cell with k-points ... Done.

---------- Setting up exact exchange ----------
Per-iteration cost relative to semi-local calculation ~ 20
HINT: For gamma-point only calculations, turn off symmetries to speed up exact exchange.

---------- Allocating electronic variables ----------
Initializing wave functions:  linear combination of atomic orbitals
Initializing semi-local functional for LCAO:
Initalized PBE GGA exchange.
Initalized PBE GGA correlation.
H pseudo-atom occupations:   s ( 1 )
	FillingsUpdate:  mu: -0.000000000  nElectrons: 1.000000  magneticMoment: [ Abs: 1.00000  Tot: +1.00000 ]
LCAOMinimize: Iter:   0  Etot: -0.4983347769916093  |grad|_K:  2.225e-07  alpha:  1.000e+00
	FillingsUpdate:  mu: -0.000000000  nElectrons: 1.000000  magneticMoment: [ Abs: 1.00000  Tot: +1.00000 ]
LCAOMinimize: Iter:   1  Etot: -0.4983347769918085  |grad|_K:  2.974e-09  alpha:  9.873e-01  linmin: -4.452e-02  cgtest:  1.000e+00  t[s]:      7.97
LCAOMinimize: Encountered beta<0, resetting CG.
	FillingsUpdate:  mu: -0.000000000  nElectrons: 1.000000  magneticMoment: [ Abs: 1.00000  Tot: +1.00000 ]
LCAOMinimize: Iter:   2  Etot: -0.4983347769918091  |grad|_K:  2.903e-09  alpha:  2.389e-02  linmin: -4.482e-02  cgtest:  1.000e+00  t[s]:      8.81
LCAOMinimize: Encountered beta<0, resetting CG.
LCAOMinimize: Converged (|Delta Etot|<1.000000e-06 for 2 iters).


---- Citations for features of the code used in this run ----

   Software package:
      R. Sundararaman, K. Letchworth-Weaver, K.A. Schwarz, D. Gunceler, Y. Ozhabes and T.A. Arias, 'JDFTx: software for joint density-functional theory', SoftwareX 6, 278 (2017)

   Pseudopotentials:
      M Schlipf and F Gygi, Comput. Phys. Commun. 196, 36 (2015)

   Truncated Coulomb potentials:
      R. Sundararaman and T.A. Arias, Phys. Rev. B 87, 165122 (2013)

   gga-PBE exchange-correlation functional:
      J.P. Perdew, K. Burke and M. Ernzerhof, Phys. Rev. Lett. 77, 3865 (1996)

   Total energy minimization:
      T.A. Arias, M.C. Payne and J.D. Joannopoulos, Phys. Rev. Lett. 69, 1077 (1992)

This list may not be complete. Please suggest additional citations or
report any other bugs at https://github.com/shankar1729/jdftx/issues

Initialization completed successfully at t[s]:      8.81


-------- Electronic minimization -----------
ElecMinimize: Iter:   0  Etot: -0.497214597862352  |grad|_K:  1.423e-04  alpha:  1.000e+00
ElecMinimize: Iter:   1  Etot: -0.499537632318184  |grad|_K:  5.887e-05  alpha:  2.166e+00  linmin:  4.602e-04  t[s]:     43.53
ElecMinimize: Iter:   2  Etot: -0.499824157442063  |grad|_K:  1.595e-05  alpha:  1.561e+00  linmin: -1.728e-05  t[s]:     58.39
ElecMinimize: Iter:   3  Etot: -0.499840942345647  |grad|_K:  4.135e-06  alpha:  1.244e+00  linmin: -1.917e-07  t[s]:     74.25
ElecMinimize: Iter:   4  Etot: -0.499842298114737  |grad|_K:  1.593e-06  alpha:  1.494e+00  linmin:  2.322e-09  t[s]:     89.74
ElecMinimize: Iter:   5  Etot: -0.499842469922402  |grad|_K:  3.951e-07  alpha:  1.276e+00  linmin: -2.212e-10  t[s]:    105.05
ElecMinimize: Iter:   6  Etot: -0.499842479211432  |grad|_K:  9.044e-08  alpha:  1.121e+00  linmin:  4.261e-11  t[s]:    120.20
ElecMinimize: Iter:   7  Etot: -0.499842479669728  |grad|_K:  1.924e-08  alpha:  1.056e+00  linmin:  1.775e-10  t[s]:    139.43
ElecMinimize: Converged (|Delta Etot|<1.000000e-08 for 2 iters).
Setting wave functions to eigenvectors of Hamiltonian

# Ionic positions in lattice coordinates:
ion H   0.000000000000000   0.000000000000000   0.000000000000000 1


# Forces in Lattice coordinates:
force H  -0.000000000000000   0.000000000000000   0.000000000000000 1

# Energy components:
       EH =        0.3120556858527210
     Eloc =       -0.9538703127168681
      Enl =       -0.0374060482459653
   Epulay =        0.0000010010061905
      EXX =       -0.3120556858523712
       KE =        0.4914328802865653
-------------------------------------
     Etot =       -0.4998424796697278

IonicMinimize: Iter:   0  Etot: -0.499842479669728  |grad|_K:  0.000e+00  t[s]:    139.63
IonicMinimize: Converged (|grad|_K<1.000000e-04).

#--- Lowdin population analysis ---
# oxidation-state H +0.006
# magnetic-moments H +0.994


Dumping 'Hatom.eigenvals' ... done
End date and time: Sun Mar  3 21:45:30 2019  (Duration: 0-0:02:19.65)
Done!
