
*************** JDFTx 1.4.2  ***************

Start date and time: Sun Mar  3 23:09:29 2019
Executable jdftx with command-line: -i vibrations.in
Running on hosts (process indices):  Juans-MBP.lan1 (0)
Divided in process groups (process indices):  0 (0)
Resource initialization completed at t[s]:      0.00
Run totals: 1 processes, 12 threads, 0 GPUs


Input parsed successfully to the following command list (including defaults):

basis kpoint-dependent
coords-type Cartesian
core-overlap-check vector
coulomb-interaction Isolated
coulomb-truncation-embed 0 0 0
davidson-band-ratio 1.1
dump End None
dump-name H2O.$VAR
elec-cutoff 20 100
elec-eigen-algo Davidson
elec-ex-corr gga-PBE
elec-initial-charge 0.000000
electronic-minimize  \
	dirUpdateScheme      FletcherReeves \
	linminMethod         DirUpdateRecommended \
	nIterations          100 \
	history              15 \
	knormThreshold       0 \
	energyDiffThreshold  1e-08 \
	nEnergyDiff          2 \
	alphaTstart          1 \
	alphaTmin            1e-10 \
	updateTestStepSize   yes \
	alphaTreduceFactor   0.1 \
	alphaTincreaseFactor 3 \
	nAlphaAdjustMax      3 \
	wolfeEnergy          0.0001 \
	wolfeGradient        0.9 \
	fdTest               no
exchange-regularization None
fluid LinearPCM 298.000000 1.013250
fluid-anion F- 1 MeanFieldLJ \
	epsBulk 1 \
	pMol 0 \
	epsInf 1 \
	Pvap 0 \
	sigmaBulk 0 \
	Rvdw 2.24877 \
	Res 0
fluid-cation Na+ 1 MeanFieldLJ \
	epsBulk 1 \
	pMol 0 \
	epsInf 1 \
	Pvap 0 \
	sigmaBulk 0 \
	Rvdw 2.19208 \
	Res 0
fluid-ex-corr lda-TF lda-PZ
fluid-gummel-loop 10 1.000000e-05
fluid-minimize  \
	dirUpdateScheme      PolakRibiere \
	linminMethod         DirUpdateRecommended \
	nIterations          400 \
	history              15 \
	knormThreshold       1e-11 \
	energyDiffThreshold  0 \
	nEnergyDiff          2 \
	alphaTstart          1 \
	alphaTmin            1e-10 \
	updateTestStepSize   yes \
	alphaTreduceFactor   0.1 \
	alphaTincreaseFactor 3 \
	nAlphaAdjustMax      6 \
	wolfeEnergy          0.0001 \
	wolfeGradient        0.9 \
	fdTest               no
fluid-solvent H2O 55.338 ScalarEOS \
	epsBulk 78.4 \
	pMol 0.92466 \
	epsInf 1.77 \
	Pvap 1.06736e-10 \
	sigmaBulk 4.62e-05 \
	Rvdw 2.61727 \
	Res 1.42
forces-output-coords Positions
initial-state H2O.$VAR
ion O   0.000000000000000   0.000000000000000   0.000000000000000 0
ion H   0.000000000000000   1.146111195534886   1.460961665024215 1
ion H   0.000000000000000   1.146111195534886  -1.460961665024215 1
ion-species GBRV/$ID_pbe.uspp
ion-width Ecut
ionic-minimize  \
	dirUpdateScheme      L-BFGS \
	linminMethod         DirUpdateRecommended \
	nIterations          0 \
	history              15 \
	knormThreshold       0.0001 \
	energyDiffThreshold  1e-06 \
	nEnergyDiff          2 \
	alphaTstart          1 \
	alphaTmin            1e-10 \
	updateTestStepSize   yes \
	alphaTreduceFactor   0.1 \
	alphaTincreaseFactor 3 \
	nAlphaAdjustMax      3 \
	wolfeEnergy          0.0001 \
	wolfeGradient        0.9 \
	fdTest               no
kpoint   0.000000000000   0.000000000000   0.000000000000  1.00000000000000
kpoint-folding 1 1 1 
latt-move-scale 1 1 1
latt-scale 1 1 1 
lattice Cubic 15
lattice-minimize  \
	dirUpdateScheme      L-BFGS \
	linminMethod         DirUpdateRecommended \
	nIterations          0 \
	history              15 \
	knormThreshold       0 \
	energyDiffThreshold  1e-06 \
	nEnergyDiff          2 \
	alphaTstart          1 \
	alphaTmin            1e-10 \
	updateTestStepSize   yes \
	alphaTreduceFactor   0.1 \
	alphaTincreaseFactor 3 \
	nAlphaAdjustMax      3 \
	wolfeEnergy          0.0001 \
	wolfeGradient        0.9 \
	fdTest               no
lcao-params -1 1e-06 0.001
pcm-variant CANDLE
spintype no-spin
subspace-rotation-factor 1 yes
symmetries automatic
symmetry-threshold 0.0001
vibrations \
	dr 0.01\
	centralDiff yes\
	useConstraints no\
	translationSym yes\
	rotationSym yes\
	omegaMin 0.0002\
	T 298\
	omegaResolution 0.0001



---------- Setting up symmetries ----------

Found 48 point-group symmetries of the bravais lattice
Found 4 space-group symmetries with basis
Applied RMS atom displacement 0 bohrs to make symmetries exact.
Applied RMS atom displacement 0 bohrs to make symmetries exact.

---------- Initializing the Grid ----------
R = 
[         15          0          0  ]
[          0         15          0  ]
[          0          0         15  ]
unit cell volume = 3375
G =
[   0.418879          0          0  ]
[          0   0.418879          0  ]
[          0          0   0.418879  ]
Minimum fftbox size, Smin = [  68  68  68  ]
Chosen fftbox size, S = [  70  70  70  ]

---------- Initializing tighter grid for wavefunction operations ----------
R = 
[         15          0          0  ]
[          0         15          0  ]
[          0          0         15  ]
unit cell volume = 3375
G =
[   0.418879          0          0  ]
[          0   0.418879          0  ]
[          0          0   0.418879  ]
Minimum fftbox size, Smin = [  64  64  64  ]
Chosen fftbox size, S = [  64  64  64  ]

---------- Exchange Correlation functional ----------
Initalized PBE GGA exchange.
Initalized PBE GGA correlation.

---------- Setting up pseudopotentials ----------
Width of ionic core gaussian charges (only for fluid interactions / plotting) set to 0.397384

Reading pseudopotential file '/Users/juanmendezvalderrama/Documents/JDFTX/build/pseudopotentials/GBRV/o_pbe.uspp':
  Title: O.  Created by USPP 7.3.6 on 3-2-2014
  Reference state energy: -15.894388.  6 valence electrons in orbitals:
    |200>  occupation: 2  eigenvalue: -0.878823
    |210>  occupation: 4  eigenvalue: -0.332131
  lMax: 2  lLocal: 2  QijEcut: 6
  5 projectors sampled on a log grid with 511 points:
    l: 0  eig: -0.878823  rCut: 1.25
    l: 0  eig: 0.000000  rCut: 1.25
    l: 1  eig: -0.332132  rCut: 1.25
    l: 1  eig: 0.000000  rCut: 1.25
    l: 2  eig: 1.000000  rCut: 1.25
  Partial core density with radius 0.7
  Transforming core density to a uniform radial grid of dG=0.02 with 1275 points.
  Transforming local potential to a uniform radial grid of dG=0.02 with 1275 points.
  Transforming nonlocal projectors to a uniform radial grid of dG=0.02 with 432 points.
  Transforming density augmentations to a uniform radial grid of dG=0.02 with 1275 points.
  Transforming atomic orbitals to a uniform radial grid of dG=0.02 with 432 points.
  Core radius for overlap checks: 1.25 bohrs.

Reading pseudopotential file '/Users/juanmendezvalderrama/Documents/JDFTX/build/pseudopotentials/GBRV/h_pbe.uspp':
  Title: H.  Created by USPP 7.3.6 on 2-4-15
  Reference state energy: -0.458849.  1 valence electrons in orbitals:
    |100>  occupation: 1  eigenvalue: -0.238595
  lMax: 0  lLocal: 1  QijEcut: 6
  2 projectors sampled on a log grid with 395 points:
    l: 0  eig: -0.238595  rCut: 1.2
    l: 0  eig: 1.000000  rCut: 1.2
  Transforming local potential to a uniform radial grid of dG=0.02 with 1275 points.
  Transforming nonlocal projectors to a uniform radial grid of dG=0.02 with 432 points.
  Transforming density augmentations to a uniform radial grid of dG=0.02 with 1275 points.
  Transforming atomic orbitals to a uniform radial grid of dG=0.02 with 432 points.
  Core radius for overlap checks: 1.20 bohrs.

Initialized 2 species with 3 total atoms.

Folded 1 k-points by 1x1x1 to 1 k-points.

---------- Setting up k-points, bands, fillings ----------
No reducable k-points. 
Computing the number of bands and number of electrons
Calculating initial fillings.
nElectrons:   8.000000   nBands: 4   nStates: 1

----- Setting up reduced wavefunction bases (one per k-point) -----
average nbasis = 14363.000 , ideal nbasis = 14418.257

---------- Setting up coulomb interaction ----------
Fluid mode embedding: using embedded box, but periodic Coulomb kernel.
(Fluid response is responsible for (approximate) separation between periodic images.)
Setting up double-sized grid for truncated Coulomb potentials:
R = 
[         30          0          0  ]
[          0         30          0  ]
[          0          0         30  ]
unit cell volume = 27000
G =
[    0.20944          0          0  ]
[          0    0.20944          0  ]
[          0          0    0.20944  ]
Chosen fftbox size, S = [  140  140  140  ]
Integer grid location selected as the embedding center:
   Grid: [  0  0  0  ]
   Lattice: [  0  0  0  ]
   Cartesian: [  0  0  0  ]
Constructing Wigner-Seitz cell: 6 faces (6 quadrilaterals, 0 hexagons)
Range-separation parameter for embedded mesh potentials due to point charges: 0.583992 bohrs.

Initializing van der Waals corrections
	NOTE: vdW corrections apply only for interactions with fluid.
	 O:  C6:   12.14 Eh-a0^6  R0: 2.536 a0
	 H:  C6:    2.43 Eh-a0^6  R0: 1.892 a0

---------- Setting up ewald sum ----------
Optimum gaussian width for ewald sums = 9.965776 bohr.
Real space sum over 1331 unit cells with max indices [  5  5  5  ]
Reciprocal space sum over 2197 terms with max indices [  6  6  6  ]

---------- Allocating electronic variables ----------
Initializing wave functions:  reading from 'H2O.wfns'
----- createFluidSolver() ----- (Fluid-side solver setup)
   Initializing fluid molecule 'H2O'
     Initializing site 'O'
       Electron density: proportional to exp(-r/0.36935)*erfc((r-0.51523)/0.36823) with norm 6.826
       Charge density: gaussian nuclear width 0.478731 with net site charge 0.826
       Polarizability: cuspless exponential with width 0.32 and norm 3.73
       Hard sphere radius: 2.57003 bohrs
       Positions in reference frame:
         [ +0.000000 +0.000000 +0.000000 ]
     Initializing site 'H'
       Electron density: proportional to exp(-r/0.34641)*erfc((r-0)/0.390882) with norm 0.587
       Charge density: gaussian nuclear width 0.377945 with net site charge -0.413
       Polarizability: cuspless exponential with width 0.39 and norm 3.3
       Positions in reference frame:
         [ +0.000000 -1.441945 +1.122523 ]
         [ +0.000000 +1.441945 +1.122523 ]
     Net charge: 0   dipole magnitude: 0.927204
     Initializing spherical shell mfKernel with radius 2.61727 Bohr
     deltaS corrections:
       site 'O': -7.54299
       site 'H': -6.83917
   Initializing fluid molecule 'Na+'
     Initializing site 'Na'
       Electron density: proportional to exp(-r/0.19682)*erfc((r-0.71491)/0.41314) with norm 8.1383
       Charge density: gaussian nuclear width 0.365347 with net site charge -1
       Hard sphere radius: 1.86327 bohrs
       Positions in reference frame:
         [ +0.000000 +0.000000 +0.000000 ]
     Net charge: -1   dipole magnitude: 0
     Initializing gaussian mfKernel with width: 1.55004 Bohr
     deltaS corrections:
       site 'Na': -22.3555
   Initializing fluid molecule 'F-'
     Initializing site 'F'
       Electron density: proportional to exp(-r/0.38886)*erfc((r-0)/0.438782) with norm 8
       Charge density: gaussian nuclear width 0.374796 with net site charge 1
       Hard sphere radius: 2.39995 bohrs
       Positions in reference frame:
         [ +0.000000 +0.000000 +0.000000 ]
     Net charge: 1   dipole magnitude: 0
     Initializing gaussian mfKernel with width: 1.59012 Bohr
     deltaS corrections:
       site 'F': -9.04335

Correction to mu due to finite nuclear width = -0.000293985
   Cavity determined by nc: 0.00142 and sigma: 0.707107
   Nonlocal vdW cavity from gaussian model electron density with norm = 8 and sigma = 0.993594 bohr
   Charge asymmetry in cavity with sensitivity pCavity = 36.5 e-bohr/Eh
   Electrostatic cavity expanded by eta = 1.46 bohrs
   Weighted density cavitation model constrained by Nbulk: 0.0049383 bohr^-3, Pvap: 3.14029 kPa, Rvdw: 2.61727 bohr and sigmaBulk: 4.62e-05 Eh/bohr^2 at T: 298 K.
   Weighted density dispersion model using vdW pair potentials with single solvent site with sqrtC6eff: 0.77 SI.
Reading fluid state from 'H2O.fluidState'


---- Citations for features of the code used in this run ----

   Software package:
      R. Sundararaman, K. Letchworth-Weaver, K.A. Schwarz, D. Gunceler, Y. Ozhabes and T.A. Arias, 'JDFTx: software for joint density-functional theory', SoftwareX 6, 278 (2017)

   gga-PBE exchange-correlation functional:
      J.P. Perdew, K. Burke and M. Ernzerhof, Phys. Rev. Lett. 77, 3865 (1996)

   Pseudopotentials:
      KF Garrity, JW Bennett, KM Rabe and D Vanderbilt, Comput. Mater. Sci. 81, 446 (2014)

   Truncated Coulomb potentials:
      R. Sundararaman and T.A. Arias, Phys. Rev. B 87, 165122 (2013)

   Van der Waals correction pair-potentials:
      S. Grimme, J. Comput. Chem. 27, 1787 (2006)

   Charge-asymmetric nonlocally-determined local-electric (CANDLE) solvation model:
      R. Sundararaman and W.A. Goddard III, J. Chem. Phys. 142, 064107 (2015)

   Total energy minimization:
      T.A. Arias, M.C. Payne and J.D. Joannopoulos, Phys. Rev. Lett. 69, 1077 (1992)

This list may not be complete. Please suggest additional citations or
report any other bugs at https://github.com/shankar1729/jdftx/issues

Initialization completed successfully at t[s]:      3.39

------ Vibrations::calculate() -------
WARNING: Vibrations module is experimental. Please report bugs!
Compare results with and without symmetries and report discrepancies.
Degrees of freedom: 9 total, 3 symmetry-independent.
	Linear fluid (dielectric constant: 78.4, screening length: 5.74355 Bohr) occupying 0.977667 of unit cell:	Completed after 0 iterations at t[s]:      5.58

-------- Electronic minimization -----------
	Linear fluid (dielectric constant: 78.4, screening length: 5.74355 Bohr) occupying 0.977667 of unit cell:	Completed after 0 iterations at t[s]:      7.29
ElecMinimize: Iter:   0  Etot: -17.280949710499364  |grad|_K:  2.195e-07  alpha:  1.000e+00
	Linear fluid (dielectric constant: 78.4, screening length: 5.74355 Bohr) occupying 0.977667 of unit cell:	Completed after 0 iterations at t[s]:      9.20
	Linear fluid (dielectric constant: 78.4, screening length: 5.74355 Bohr) occupying 0.977667 of unit cell:	Completed after 0 iterations at t[s]:     10.81
ElecMinimize: Iter:   1  Etot: -17.280949711865834  |grad|_K:  4.691e-08  alpha:  4.935e-01  linmin:  4.597e-05  t[s]:     11.71
	Linear fluid (dielectric constant: 78.4, screening length: 5.74355 Bohr) occupying 0.977667 of unit cell:	Completed after 0 iterations at t[s]:     12.48
ElecMinimize: 	Predicted alpha/alphaT>3.000000, increasing alphaT to 1.480528e+00.
	Linear fluid (dielectric constant: 78.4, screening length: 5.74355 Bohr) occupying 0.977668 of unit cell:	Completed after 0 iterations at t[s]:     14.08
	Linear fluid (dielectric constant: 78.4, screening length: 5.74355 Bohr) occupying 0.977668 of unit cell:	Completed after 0 iterations at t[s]:     15.67
ElecMinimize: Iter:   2  Etot: -17.280949712055047  |grad|_K:  4.237e-08  alpha:  1.496e+00  linmin: -4.256e-04  t[s]:     16.56
ElecMinimize: Converged (|Delta Etot|<1.000000e-08 for 2 iters).
Setting wave functions to eigenvectors of Hamiltonian
Completed 1 of 7 configurations.
	Linear fluid (dielectric constant: 78.4, screening length: 5.74355 Bohr) occupying 0.977668 of unit cell:	Completed after 6 iterations at t[s]:     20.03

-------- Electronic minimization -----------
	Linear fluid (dielectric constant: 78.4, screening length: 5.74355 Bohr) occupying 0.977668 of unit cell:	Completed after 0 iterations at t[s]:     21.73
ElecMinimize: Iter:   0  Etot: -17.280941043573442  |grad|_K:  1.529e-05  alpha:  1.000e+00
	Linear fluid (dielectric constant: 78.4, screening length: 5.74355 Bohr) occupying 0.977667 of unit cell:	Completed after 3 iterations at t[s]:     24.40
	Linear fluid (dielectric constant: 78.4, screening length: 5.74355 Bohr) occupying 0.977667 of unit cell:	Completed after 3 iterations at t[s]:     27.00
ElecMinimize: Iter:   1  Etot: -17.280948814569584  |grad|_K:  3.682e-06  alpha:  5.786e-01  linmin:  5.373e-03  t[s]:     27.91
	Linear fluid (dielectric constant: 78.4, screening length: 5.74355 Bohr) occupying 0.977667 of unit cell:	Completed after 0 iterations at t[s]:     28.69
	Linear fluid (dielectric constant: 78.4, screening length: 5.74355 Bohr) occupying 0.977667 of unit cell:	Completed after 1 iterations at t[s]:     30.68
ElecMinimize: Iter:   2  Etot: -17.280949465787408  |grad|_K:  2.083e-06  alpha:  8.709e-01  linmin:  4.095e-02  t[s]:     31.58
	Linear fluid (dielectric constant: 78.4, screening length: 5.74355 Bohr) occupying 0.977667 of unit cell:	Completed after 0 iterations at t[s]:     32.35
	Linear fluid (dielectric constant: 78.4, screening length: 5.74355 Bohr) occupying 0.977667 of unit cell:	Completed after 0 iterations at t[s]:     33.95
ElecMinimize: Iter:   3  Etot: -17.280949657717748  |grad|_K:  9.732e-07  alpha:  7.973e-01  linmin: -1.542e-06  t[s]:     34.85
	Linear fluid (dielectric constant: 78.4, screening length: 5.74355 Bohr) occupying 0.977667 of unit cell:	Completed after 1 iterations at t[s]:     36.05
	Linear fluid (dielectric constant: 78.4, screening length: 5.74355 Bohr) occupying 0.977667 of unit cell:	Completed after 0 iterations at t[s]:     37.64
ElecMinimize: Iter:   4  Etot: -17.280949685064158  |grad|_K:  5.063e-07  alpha:  6.033e-01  linmin: -2.788e-01  t[s]:     38.55
	Linear fluid (dielectric constant: 78.4, screening length: 5.74355 Bohr) occupying 0.977667 of unit cell:	Completed after 0 iterations at t[s]:     39.33
	Linear fluid (dielectric constant: 78.4, screening length: 5.74355 Bohr) occupying 0.977667 of unit cell:	Completed after 0 iterations at t[s]:     41.03
ElecMinimize: Iter:   5  Etot: -17.280949698996366  |grad|_K:  3.395e-07  alpha:  7.804e-01  linmin: -7.088e-06  t[s]:     41.95
	Linear fluid (dielectric constant: 78.4, screening length: 5.74355 Bohr) occupying 0.977667 of unit cell:	Completed after 0 iterations at t[s]:     42.83
	Linear fluid (dielectric constant: 78.4, screening length: 5.74355 Bohr) occupying 0.977667 of unit cell:	Completed after 0 iterations at t[s]:     44.67
ElecMinimize: Iter:   6  Etot: -17.280949703684797  |grad|_K:  2.115e-07  alpha:  7.080e-01  linmin:  1.779e-05  t[s]:     45.66
	Linear fluid (dielectric constant: 78.4, screening length: 5.74355 Bohr) occupying 0.977667 of unit cell:	Completed after 0 iterations at t[s]:     46.44
	Linear fluid (dielectric constant: 78.4, screening length: 5.74355 Bohr) occupying 0.977667 of unit cell:	Completed after 0 iterations at t[s]:     48.09
ElecMinimize: Iter:   7  Etot: -17.280949705774169  |grad|_K:  1.463e-07  alpha:  8.130e-01  linmin:  5.747e-05  t[s]:     49.13
ElecMinimize: Converged (|Delta Etot|<1.000000e-08 for 2 iters).
Setting wave functions to eigenvectors of Hamiltonian
Completed 2 of 7 configurations.
	Linear fluid (dielectric constant: 78.4, screening length: 5.74355 Bohr) occupying 0.977668 of unit cell:	Completed after 7 iterations at t[s]:     53.03

-------- Electronic minimization -----------
	Linear fluid (dielectric constant: 78.4, screening length: 5.74355 Bohr) occupying 0.977668 of unit cell:	Completed after 0 iterations at t[s]:     54.77
ElecMinimize: Iter:   0  Etot: -17.280915172063168  |grad|_K:  3.053e-05  alpha:  1.000e+00
	Linear fluid (dielectric constant: 78.4, screening length: 5.74355 Bohr) occupying 0.977667 of unit cell:	Completed after 4 iterations at t[s]:     57.67
	Linear fluid (dielectric constant: 78.4, screening length: 5.74355 Bohr) occupying 0.977667 of unit cell:	Completed after 3 iterations at t[s]:     60.12
ElecMinimize: Iter:   1  Etot: -17.280946154936487  |grad|_K:  7.367e-06  alpha:  5.785e-01  linmin:  2.994e-03  t[s]:     61.05
	Linear fluid (dielectric constant: 78.4, screening length: 5.74355 Bohr) occupying 0.977667 of unit cell:	Completed after 2 iterations at t[s]:     62.45
	Linear fluid (dielectric constant: 78.4, screening length: 5.74355 Bohr) occupying 0.977667 of unit cell:	Completed after 0 iterations at t[s]:     64.15
ElecMinimize: Iter:   2  Etot: -17.280948782995313  |grad|_K:  4.004e-06  alpha:  8.376e-01  linmin: -2.226e-02  t[s]:     65.23
	Linear fluid (dielectric constant: 78.4, screening length: 5.74355 Bohr) occupying 0.977667 of unit cell:	Completed after 2 iterations at t[s]:     66.73
	Linear fluid (dielectric constant: 78.4, screening length: 5.74355 Bohr) occupying 0.977667 of unit cell:	Completed after 0 iterations at t[s]:     68.54
ElecMinimize: Iter:   3  Etot: -17.280949497365150  |grad|_K:  1.845e-06  alpha:  7.676e-01  linmin: -5.052e-02  t[s]:     69.53
	Linear fluid (dielectric constant: 78.4, screening length: 5.74355 Bohr) occupying 0.977667 of unit cell:	Completed after 0 iterations at t[s]:     70.29
	Linear fluid (dielectric constant: 78.4, screening length: 5.74355 Bohr) occupying 0.977667 of unit cell:	Completed after 0 iterations at t[s]:     71.89
ElecMinimize: Iter:   4  Etot: -17.280949660644534  |grad|_K:  9.549e-07  alpha:  8.072e-01  linmin:  5.425e-07  t[s]:     72.78
	Linear fluid (dielectric constant: 78.4, screening length: 5.74355 Bohr) occupying 0.977667 of unit cell:	Completed after 0 iterations at t[s]:     73.54
	Linear fluid (dielectric constant: 78.4, screening length: 5.74355 Bohr) occupying 0.977667 of unit cell:	Completed after 0 iterations at t[s]:     75.15
ElecMinimize: Iter:   5  Etot: -17.280949703087543  |grad|_K:  4.888e-07  alpha:  8.102e-01  linmin:  3.167e-06  t[s]:     76.04
	Linear fluid (dielectric constant: 78.4, screening length: 5.74355 Bohr) occupying 0.977667 of unit cell:	Completed after 0 iterations at t[s]:     76.81
	Linear fluid (dielectric constant: 78.4, screening length: 5.74355 Bohr) occupying 0.977667 of unit cell:	Completed after 0 iterations at t[s]:     78.41
ElecMinimize: Iter:   6  Etot: -17.280949716064551  |grad|_K:  2.901e-07  alpha:  9.453e-01  linmin: -7.909e-06  t[s]:     79.30
	Linear fluid (dielectric constant: 78.4, screening length: 5.74355 Bohr) occupying 0.977667 of unit cell:	Completed after 0 iterations at t[s]:     80.05
	Linear fluid (dielectric constant: 78.4, screening length: 5.74355 Bohr) occupying 0.977667 of unit cell:	Completed after 0 iterations at t[s]:     81.66
ElecMinimize: Iter:   7  Etot: -17.280949720675025  |grad|_K:  1.764e-07  alpha:  9.535e-01  linmin: -1.379e-05  t[s]:     82.55
	Linear fluid (dielectric constant: 78.4, screening length: 5.74355 Bohr) occupying 0.977667 of unit cell:	Completed after 0 iterations at t[s]:     83.33
	Linear fluid (dielectric constant: 78.4, screening length: 5.74355 Bohr) occupying 0.977667 of unit cell:	Completed after 0 iterations at t[s]:     84.92
ElecMinimize: Iter:   8  Etot: -17.280949722399470  |grad|_K:  1.070e-07  alpha:  9.645e-01  linmin:  2.875e-05  t[s]:     85.82
ElecMinimize: Converged (|Delta Etot|<1.000000e-08 for 2 iters).
Setting wave functions to eigenvectors of Hamiltonian
Completed 3 of 7 configurations.
	Linear fluid (dielectric constant: 78.4, screening length: 5.74355 Bohr) occupying 0.977670 of unit cell:	Completed after 7 iterations at t[s]:     89.43

-------- Electronic minimization -----------
	Linear fluid (dielectric constant: 78.4, screening length: 5.74355 Bohr) occupying 0.977670 of unit cell:	Completed after 0 iterations at t[s]:     91.05
ElecMinimize: Iter:   0  Etot: -17.280920801635638  |grad|_K:  2.257e-05  alpha:  1.000e+00
	Linear fluid (dielectric constant: 78.4, screening length: 5.74355 Bohr) occupying 0.977658 of unit cell:	Completed after 5 iterations at t[s]:     93.90
	Linear fluid (dielectric constant: 78.4, screening length: 5.74355 Bohr) occupying 0.977663 of unit cell:	Completed after 3 iterations at t[s]:     96.30
ElecMinimize: Iter:   1  Etot: -17.280937356791192  |grad|_K:  6.040e-06  alpha:  5.652e-01  linmin:  2.795e-03  t[s]:     97.19
	Linear fluid (dielectric constant: 78.4, screening length: 5.74355 Bohr) occupying 0.977662 of unit cell:	Completed after 2 iterations at t[s]:     98.56
	Linear fluid (dielectric constant: 78.4, screening length: 5.74355 Bohr) occupying 0.977662 of unit cell:	Completed after 0 iterations at t[s]:    100.16
ElecMinimize: Iter:   2  Etot: -17.280938757431372  |grad|_K:  3.444e-06  alpha:  6.649e-01  linmin: -3.965e-02  t[s]:    101.06
	Linear fluid (dielectric constant: 78.4, screening length: 5.74355 Bohr) occupying 0.977659 of unit cell:	Completed after 2 iterations at t[s]:    102.44
	Linear fluid (dielectric constant: 78.4, screening length: 5.74355 Bohr) occupying 0.977658 of unit cell:	Completed after 0 iterations at t[s]:    104.03
ElecMinimize: Iter:   3  Etot: -17.280939323616494  |grad|_K:  1.727e-06  alpha:  8.010e-01  linmin: -2.303e-02  t[s]:    104.92
	Linear fluid (dielectric constant: 78.4, screening length: 5.74355 Bohr) occupying 0.977657 of unit cell:	Completed after 0 iterations at t[s]:    105.69
	Linear fluid (dielectric constant: 78.4, screening length: 5.74355 Bohr) occupying 0.977657 of unit cell:	Completed after 0 iterations at t[s]:    107.30
ElecMinimize: Iter:   4  Etot: -17.280939468328143  |grad|_K:  9.261e-07  alpha:  8.283e-01  linmin: -1.385e-05  t[s]:    108.22
	Linear fluid (dielectric constant: 78.4, screening length: 5.74355 Bohr) occupying 0.977657 of unit cell:	Completed after 1 iterations at t[s]:    109.39
	Linear fluid (dielectric constant: 78.4, screening length: 5.74355 Bohr) occupying 0.977657 of unit cell:	Completed after 0 iterations at t[s]:    110.99
ElecMinimize: Iter:   5  Etot: -17.280939477972883  |grad|_K:  8.059e-07  alpha:  4.880e-01  linmin: -2.092e-01  t[s]:    111.88
	Linear fluid (dielectric constant: 78.4, screening length: 5.74355 Bohr) occupying 0.977657 of unit cell:	Completed after 0 iterations at t[s]:    112.65
	Linear fluid (dielectric constant: 78.4, screening length: 5.74355 Bohr) occupying 0.977657 of unit cell:	Completed after 0 iterations at t[s]:    114.26
ElecMinimize: Iter:   6  Etot: -17.280939504932313  |grad|_K:  6.854e-07  alpha:  5.683e-01  linmin: -7.611e-06  t[s]:    115.15
	Linear fluid (dielectric constant: 78.4, screening length: 5.74355 Bohr) occupying 0.977658 of unit cell:	Completed after 2 iterations at t[s]:    116.71
	Linear fluid (dielectric constant: 78.4, screening length: 5.74355 Bohr) occupying 0.977657 of unit cell:	Completed after 0 iterations at t[s]:    118.38
ElecMinimize: 	Step increased Etot by 2.054357e-09, reducing alpha to 1.200028e-02.
	Linear fluid (dielectric constant: 78.4, screening length: 5.74355 Bohr) occupying 0.977657 of unit cell:	Completed after 0 iterations at t[s]:    120.25
ElecMinimize: Iter:   7  Etot: -17.280939509731102  |grad|_K:  1.112e-06  alpha:  1.200e-02  linmin:  2.415e-01  t[s]:    121.23
ElecMinimize: 	Bad step direction: g.d > 0.
ElecMinimize: 	Undoing step.
	Linear fluid (dielectric constant: 78.4, screening length: 5.74355 Bohr) occupying 0.977657 of unit cell:	Completed after 0 iterations at t[s]:    122.00
ElecMinimize: 	Step failed: resetting search direction.
ElecMinimize: Iter:   8  Etot: -17.280939509731081  |grad|_K:  1.112e-06  alpha:  0.000e+00
	Linear fluid (dielectric constant: 78.4, screening length: 5.74355 Bohr) occupying 0.977657 of unit cell:	Completed after 0 iterations at t[s]:    123.79
ElecMinimize: 	Predicted alpha/alphaT>3.000000, increasing alphaT to 3.600084e-02.
	Linear fluid (dielectric constant: 78.4, screening length: 5.74355 Bohr) occupying 0.977657 of unit cell:	Completed after 0 iterations at t[s]:    125.46
ElecMinimize: 	Predicted alpha/alphaT>3.000000, increasing alphaT to 1.080025e-01.
	Linear fluid (dielectric constant: 78.4, screening length: 5.74355 Bohr) occupying 0.977657 of unit cell:	Completed after 1 iterations at t[s]:    127.52
	Linear fluid (dielectric constant: 78.4, screening length: 5.74355 Bohr) occupying 0.977657 of unit cell:	Completed after 0 iterations at t[s]:    129.23
ElecMinimize: 	Step increased Etot by 1.136844e-08, reducing alpha to 3.714513e-03.
	Linear fluid (dielectric constant: 78.4, screening length: 5.74355 Bohr) occupying 0.977657 of unit cell:	Completed after 0 iterations at t[s]:    130.89
ElecMinimize: 	Step increased Etot by 1.377035e-08, reducing alpha to 3.714513e-04.
	Linear fluid (dielectric constant: 78.4, screening length: 5.74355 Bohr) occupying 0.977657 of unit cell:	Completed after 0 iterations at t[s]:    132.63
ElecMinimize: 	Step increased Etot by 1.402200e-08, reducing alpha to 3.714513e-05.
ElecMinimize: 	Step failed to reduce Etot after 3 attempts. Quitting step.
ElecMinimize: 	Undoing step.
	Linear fluid (dielectric constant: 78.4, screening length: 5.74355 Bohr) occupying 0.977657 of unit cell:	Completed after 0 iterations at t[s]:    134.35
ElecMinimize: 	Step failed along negative gradient direction.
ElecMinimize: Probably at roundoff error limit. (Stopping)
Setting wave functions to eigenvectors of Hamiltonian
Completed 4 of 7 configurations.
	Linear fluid (dielectric constant: 78.4, screening length: 5.74355 Bohr) occupying 0.977650 of unit cell:	Completed after 8 iterations at t[s]:    139.17

-------- Electronic minimization -----------
	Linear fluid (dielectric constant: 78.4, screening length: 5.74355 Bohr) occupying 0.977650 of unit cell:	Completed after 0 iterations at t[s]:    140.76
ElecMinimize: Iter:   0  Etot: -17.280898305516516  |grad|_K:  3.341e-05  alpha:  1.000e+00
	Linear fluid (dielectric constant: 78.4, screening length: 5.74355 Bohr) occupying 0.977676 of unit cell:	Completed after 6 iterations at t[s]:    143.79
	Linear fluid (dielectric constant: 78.4, screening length: 5.74355 Bohr) occupying 0.977665 of unit cell:	Completed after 4 iterations at t[s]:    146.36
ElecMinimize: Iter:   1  Etot: -17.280933978937107  |grad|_K:  9.422e-06  alpha:  5.560e-01  linmin:  1.892e-03  t[s]:    147.24
	Linear fluid (dielectric constant: 78.4, screening length: 5.74355 Bohr) occupying 0.977668 of unit cell:	Completed after 2 iterations at t[s]:    148.61
	Linear fluid (dielectric constant: 78.4, screening length: 5.74355 Bohr) occupying 0.977669 of unit cell:	Completed after 0 iterations at t[s]:    150.41
ElecMinimize: Iter:   2  Etot: -17.280937090876467  |grad|_K:  5.414e-06  alpha:  6.100e-01  linmin: -2.426e-02  t[s]:    151.30
	Linear fluid (dielectric constant: 78.4, screening length: 5.74355 Bohr) occupying 0.977673 of unit cell:	Completed after 2 iterations at t[s]:    152.65
	Linear fluid (dielectric constant: 78.4, screening length: 5.74355 Bohr) occupying 0.977675 of unit cell:	Completed after 0 iterations at t[s]:    154.25
ElecMinimize: Iter:   3  Etot: -17.280938475722351  |grad|_K:  2.731e-06  alpha:  8.010e-01  linmin: -3.659e-02  t[s]:    155.14
	Linear fluid (dielectric constant: 78.4, screening length: 5.74355 Bohr) occupying 0.977677 of unit cell:	Completed after 2 iterations at t[s]:    156.50
	Linear fluid (dielectric constant: 78.4, screening length: 5.74355 Bohr) occupying 0.977677 of unit cell:	Completed after 0 iterations at t[s]:    158.09
ElecMinimize: Iter:   4  Etot: -17.280938775053091  |grad|_K:  1.775e-06  alpha:  6.935e-01  linmin: -5.978e-02  t[s]:    158.98
	Linear fluid (dielectric constant: 78.4, screening length: 5.74355 Bohr) occupying 0.977676 of unit cell:	Completed after 1 iterations at t[s]:    160.14
	Linear fluid (dielectric constant: 78.4, screening length: 5.74355 Bohr) occupying 0.977677 of unit cell:	Completed after 0 iterations at t[s]:    161.74
ElecMinimize: Iter:   5  Etot: -17.280938871485347  |grad|_K:  1.350e-06  alpha:  4.784e-01  linmin:  8.074e-02  t[s]:    162.63
	Linear fluid (dielectric constant: 78.4, screening length: 5.74355 Bohr) occupying 0.977677 of unit cell:	Completed after 0 iterations at t[s]:    163.39
	Linear fluid (dielectric constant: 78.4, screening length: 5.74355 Bohr) occupying 0.977677 of unit cell:	Completed after 0 iterations at t[s]:    164.99
ElecMinimize: Iter:   6  Etot: -17.280938929944885  |grad|_K:  9.120e-07  alpha:  6.504e-01  linmin:  1.033e-05  t[s]:    165.89
	Linear fluid (dielectric constant: 78.4, screening length: 5.74355 Bohr) occupying 0.977678 of unit cell:	Completed after 2 iterations at t[s]:    167.24
	Linear fluid (dielectric constant: 78.4, screening length: 5.74355 Bohr) occupying 0.977677 of unit cell:	Completed after 0 iterations at t[s]:    168.87
ElecMinimize: 	Step increased Etot by 1.351221e-09, reducing alpha to 1.729825e-02.
	Linear fluid (dielectric constant: 78.4, screening length: 5.74355 Bohr) occupying 0.977677 of unit cell:	Completed after 0 iterations at t[s]:    170.54
ElecMinimize: Iter:   7  Etot: -17.280938938961555  |grad|_K:  1.230e-06  alpha:  1.730e-02  linmin:  2.392e-01  t[s]:    171.43
	Linear fluid (dielectric constant: 78.4, screening length: 5.74355 Bohr) occupying 0.977677 of unit cell:	Completed after 0 iterations at t[s]:    172.19
ElecMinimize: 	Predicted alpha/alphaT>3.000000, increasing alphaT to 5.189474e-02.
	Linear fluid (dielectric constant: 78.4, screening length: 5.74355 Bohr) occupying 0.977677 of unit cell:	Completed after 0 iterations at t[s]:    173.79
	Linear fluid (dielectric constant: 78.4, screening length: 5.74355 Bohr) occupying 0.977677 of unit cell:	Completed after 0 iterations at t[s]:    175.39
ElecMinimize: Iter:   8  Etot: -17.280938944571922  |grad|_K:  1.193e-06  alpha:  1.540e-01  linmin: -2.547e-05  t[s]:    176.28
ElecMinimize: Converged (|Delta Etot|<1.000000e-08 for 2 iters).
Setting wave functions to eigenvectors of Hamiltonian
Completed 5 of 7 configurations.
	Linear fluid (dielectric constant: 78.4, screening length: 5.74355 Bohr) occupying 0.977676 of unit cell:	Completed after 6 iterations at t[s]:    179.70

-------- Electronic minimization -----------
	Linear fluid (dielectric constant: 78.4, screening length: 5.74355 Bohr) occupying 0.977676 of unit cell:	Completed after 0 iterations at t[s]:    181.28
ElecMinimize: Iter:   0  Etot: -17.280906623380716  |grad|_K:  2.679e-05  alpha:  1.000e+00
	Linear fluid (dielectric constant: 78.4, screening length: 5.74355 Bohr) occupying 0.977652 of unit cell:	Completed after 7 iterations at t[s]:    184.51
	Linear fluid (dielectric constant: 78.4, screening length: 5.74355 Bohr) occupying 0.977663 of unit cell:	Completed after 4 iterations at t[s]:    187.18
ElecMinimize: Iter:   1  Etot: -17.280928691341877  |grad|_K:  8.242e-06  alpha:  5.351e-01  linmin:  1.743e-03  t[s]:    188.08
	Linear fluid (dielectric constant: 78.4, screening length: 5.74355 Bohr) occupying 0.977660 of unit cell:	Completed after 3 iterations at t[s]:    189.67
	Linear fluid (dielectric constant: 78.4, screening length: 5.74355 Bohr) occupying 0.977659 of unit cell:	Completed after 0 iterations at t[s]:    191.39
ElecMinimize: Iter:   2  Etot: -17.280930958409598  |grad|_K:  4.616e-06  alpha:  5.800e-01  linmin: -3.091e-02  t[s]:    192.39
	Linear fluid (dielectric constant: 78.4, screening length: 5.74355 Bohr) occupying 0.977655 of unit cell:	Completed after 2 iterations at t[s]:    193.78
	Linear fluid (dielectric constant: 78.4, screening length: 5.74355 Bohr) occupying 0.977652 of unit cell:	Completed after 2 iterations at t[s]:    195.98
ElecMinimize: Iter:   3  Etot: -17.280932062328866  |grad|_K:  2.597e-06  alpha:  8.857e-01  linmin:  8.851e-03  t[s]:    196.87
	Linear fluid (dielectric constant: 78.4, screening length: 5.74355 Bohr) occupying 0.977651 of unit cell:	Completed after 0 iterations at t[s]:    197.63
	Linear fluid (dielectric constant: 78.4, screening length: 5.74355 Bohr) occupying 0.977651 of unit cell:	Completed after 0 iterations at t[s]:    199.23
ElecMinimize: Iter:   4  Etot: -17.280932366924070  |grad|_K:  1.336e-06  alpha:  7.938e-01  linmin: -1.262e-05  t[s]:    200.13
	Linear fluid (dielectric constant: 78.4, screening length: 5.74355 Bohr) occupying 0.977651 of unit cell:	Completed after 1 iterations at t[s]:    201.28
	Linear fluid (dielectric constant: 78.4, screening length: 5.74355 Bohr) occupying 0.977651 of unit cell:	Completed after 0 iterations at t[s]:    202.88
ElecMinimize: Iter:   5  Etot: -17.280932429053401  |grad|_K:  7.741e-07  alpha:  6.516e-01  linmin: -1.173e-01  t[s]:    203.77
	Linear fluid (dielectric constant: 78.4, screening length: 5.74355 Bohr) occupying 0.977651 of unit cell:	Completed after 0 iterations at t[s]:    204.53
	Linear fluid (dielectric constant: 78.4, screening length: 5.74355 Bohr) occupying 0.977651 of unit cell:	Completed after 0 iterations at t[s]:    206.14
ElecMinimize: Iter:   6  Etot: -17.280932456152705  |grad|_K:  4.438e-07  alpha:  6.952e-01  linmin: -3.690e-06  t[s]:    207.06
	Linear fluid (dielectric constant: 78.4, screening length: 5.74355 Bohr) occupying 0.977651 of unit cell:	Completed after 0 iterations at t[s]:    207.85
	Linear fluid (dielectric constant: 78.4, screening length: 5.74355 Bohr) occupying 0.977651 of unit cell:	Completed after 0 iterations at t[s]:    209.49
ElecMinimize: Iter:   7  Etot: -17.280932464826616  |grad|_K:  2.776e-07  alpha:  7.663e-01  linmin: -3.453e-05  t[s]:    210.40
	Linear fluid (dielectric constant: 78.4, screening length: 5.74355 Bohr) occupying 0.977650 of unit cell:	Completed after 0 iterations at t[s]:    211.18
	Linear fluid (dielectric constant: 78.4, screening length: 5.74355 Bohr) occupying 0.977650 of unit cell:	Completed after 0 iterations at t[s]:    212.82
ElecMinimize: Iter:   8  Etot: -17.280932468039694  |grad|_K:  1.748e-07  alpha:  7.258e-01  linmin: -4.520e-05  t[s]:    213.76
ElecMinimize: Converged (|Delta Etot|<1.000000e-08 for 2 iters).
Setting wave functions to eigenvectors of Hamiltonian
Completed 6 of 7 configurations.
	Linear fluid (dielectric constant: 78.4, screening length: 5.74355 Bohr) occupying 0.977660 of unit cell:	Completed after 8 iterations at t[s]:    217.90

-------- Electronic minimization -----------
	Linear fluid (dielectric constant: 78.4, screening length: 5.74355 Bohr) occupying 0.977660 of unit cell:	Completed after 0 iterations at t[s]:    219.80
ElecMinimize: Iter:   0  Etot: -17.280886988971826  |grad|_K:  3.546e-05  alpha:  1.000e+00
	Linear fluid (dielectric constant: 78.4, screening length: 5.74355 Bohr) occupying 0.977681 of unit cell:	Completed after 7 iterations at t[s]:    223.09
	Linear fluid (dielectric constant: 78.4, screening length: 5.74355 Bohr) occupying 0.977672 of unit cell:	Completed after 5 iterations at t[s]:    225.97
ElecMinimize: Iter:   1  Etot: -17.280926534062040  |grad|_K:  9.907e-06  alpha:  5.473e-01  linmin:  1.123e-03  t[s]:    226.92
	Linear fluid (dielectric constant: 78.4, screening length: 5.74355 Bohr) occupying 0.977675 of unit cell:	Completed after 2 iterations at t[s]:    228.43
	Linear fluid (dielectric constant: 78.4, screening length: 5.74355 Bohr) occupying 0.977675 of unit cell:	Completed after 0 iterations at t[s]:    230.25
ElecMinimize: Iter:   2  Etot: -17.280929928953114  |grad|_K:  5.545e-06  alpha:  6.017e-01  linmin: -2.480e-02  t[s]:    231.13
	Linear fluid (dielectric constant: 78.4, screening length: 5.74355 Bohr) occupying 0.977680 of unit cell:	Completed after 2 iterations at t[s]:    232.49
	Linear fluid (dielectric constant: 78.4, screening length: 5.74355 Bohr) occupying 0.977682 of unit cell:	Completed after 1 iterations at t[s]:    234.48
ElecMinimize: Iter:   3  Etot: -17.280931402978513  |grad|_K:  3.014e-06  alpha:  8.227e-01  linmin:  5.094e-03  t[s]:    235.37
	Linear fluid (dielectric constant: 78.4, screening length: 5.74355 Bohr) occupying 0.977683 of unit cell:	Completed after 1 iterations at t[s]:    236.54
	Linear fluid (dielectric constant: 78.4, screening length: 5.74355 Bohr) occupying 0.977683 of unit cell:	Completed after 0 iterations at t[s]:    238.13
ElecMinimize: Iter:   4  Etot: -17.280931799877735  |grad|_K:  1.483e-06  alpha:  7.660e-01  linmin: -1.252e-02  t[s]:    239.02
	Linear fluid (dielectric constant: 78.4, screening length: 5.74355 Bohr) occupying 0.977683 of unit cell:	Completed after 0 iterations at t[s]:    239.98
	Linear fluid (dielectric constant: 78.4, screening length: 5.74355 Bohr) occupying 0.977683 of unit cell:	Completed after 0 iterations at t[s]:    241.58
ElecMinimize: Iter:   5  Etot: -17.280931900685449  |grad|_K:  7.559e-07  alpha:  7.874e-01  linmin: -5.439e-02  t[s]:    242.49
	Linear fluid (dielectric constant: 78.4, screening length: 5.74355 Bohr) occupying 0.977683 of unit cell:	Completed after 0 iterations at t[s]:    243.26
	Linear fluid (dielectric constant: 78.4, screening length: 5.74355 Bohr) occupying 0.977683 of unit cell:	Completed after 0 iterations at t[s]:    244.86
ElecMinimize: Iter:   6  Etot: -17.280931927499015  |grad|_K:  3.979e-07  alpha:  7.770e-01  linmin:  8.299e-07  t[s]:    245.75
	Linear fluid (dielectric constant: 78.4, screening length: 5.74355 Bohr) occupying 0.977683 of unit cell:	Completed after 0 iterations at t[s]:    246.51
	Linear fluid (dielectric constant: 78.4, screening length: 5.74355 Bohr) occupying 0.977683 of unit cell:	Completed after 0 iterations at t[s]:    248.11
ElecMinimize: Iter:   7  Etot: -17.280931936019641  |grad|_K:  2.171e-07  alpha:  9.365e-01  linmin: -1.556e-06  t[s]:    249.00
	Linear fluid (dielectric constant: 78.4, screening length: 5.74355 Bohr) occupying 0.977683 of unit cell:	Completed after 0 iterations at t[s]:    249.77
	Linear fluid (dielectric constant: 78.4, screening length: 5.74355 Bohr) occupying 0.977683 of unit cell:	Completed after 0 iterations at t[s]:    251.38
ElecMinimize: Iter:   8  Etot: -17.280931938349255  |grad|_K:  1.219e-07  alpha:  8.601e-01  linmin:  1.167e-05  t[s]:    252.27
ElecMinimize: Converged (|Delta Etot|<1.000000e-08 for 2 iters).
Setting wave functions to eigenvectors of Hamiltonian
Completed 7 of 7 configurations.

Relative symmetry error in force matrix = 0.0282335
Projected out 6 rotation+translation modes
0 imaginary modes, 6 modes within cutoff, 3 real modes.

Zero mode 1:
Frequency: 0.000120i Eh [ 26i cm^-1 ]
Degeneracy: 1 of 1
IR intensity: 0.0000 e^2/amu [ 0.0 km/mol ]
Displacements:
disp O   0.000000000000000  -0.005535640830229  -0.000000000000000
disp H   0.000000000000000  -0.005374541388677  -0.000193037212377
disp H  -0.000000000000016  -0.005374541388678   0.000193037212376

Zero mode 2:
Frequency: 0.000019i Eh [ 4i cm^-1 ]
Degeneracy: 1 of 5
IR intensity: 0.0001 e^2/amu [ 0.1 km/mol ]
Displacements:
disp O  -0.000000000000000  -0.000000000000000   0.005482222057115
disp H   0.000000000000000  -0.000356179054368   0.005785094180296
disp H   0.000000000001083   0.000356179054367   0.005785094180296

Zero mode 3:
Frequency: 0.000000i Eh [ 0i cm^-1 ]
Degeneracy: 2 of 5
IR intensity: 0.1365 e^2/amu [ 133.1 km/mol ]
Displacements:
disp O  -0.001355812509421  -0.000000000000000   0.000000000000000
disp H  -0.022695366646670   0.000000000000000  -0.000000000000000
disp H  -0.000000444095793  -0.000000000000000   0.000000000000000

Zero mode 4:
Frequency: 0.000000 Eh [ 0 cm^-1 ]
Degeneracy: 3 of 5
IR intensity: 0.0964 e^2/amu [ 94.0 km/mol ]
Displacements:
disp O   0.005696429087408  -0.000000000000000   0.000000000000000
disp H  -0.005401745818879   0.000000000000000  -0.000000000000000
disp H  -0.000000105699563  -0.000000000000000   0.000000000000000

Zero mode 5:
Frequency: 0.000000 Eh [ 0 cm^-1 ]
Degeneracy: 4 of 5
IR intensity: 0.1430 e^2/amu [ 139.4 km/mol ]
Displacements:
disp O  -0.000000000000000   0.000000000000000   0.001316557513672
disp H   0.000000000000000   0.013259833205057  -0.009085661552760
disp H   0.000000000000689  -0.013259833205056  -0.009085661552760

Zero mode 6:
Frequency: 0.000000 Eh [ 0 cm^-1 ]
Degeneracy: 5 of 5
IR intensity: 0.1861 e^2/amu [ 181.4 km/mol ]
Displacements:
disp O   0.000000000000024   0.000000000000004   0.000000000000293
disp H   0.000000456501338   0.000000000000379   0.000000000000000
disp H  -0.023329349007603  -0.000000000000371   0.000000000000000

Real mode 1:
Frequency: 0.006865 Eh [ 1507 cm^-1 ]
Degeneracy: 1 of 1
IR intensity: 0.1351 e^2/amu [ 131.7 km/mol ]
Displacements:
disp O  -0.000000000000000  -0.001497543500144   0.000000000000000
disp H   0.000000000000000   0.012593228429697  -0.009784721033583
disp H   0.000000000000000   0.012593228429697   0.009784721033583

Real mode 2:
Frequency: 0.017117 Eh [ 3757 cm^-1 ]
Degeneracy: 1 of 1
IR intensity: 0.0637 e^2/amu [ 62.1 km/mol ]
Displacements:
disp O   0.000000000000000   0.001183881739219   0.000000000000000
disp H  -0.000000000000000  -0.009200769817920  -0.013279730177721
disp H   0.000000000000000  -0.009200769817920   0.013279730177721

Real mode 3:
Frequency: 0.017487 Eh [ 3838 cm^-1 ]
Degeneracy: 1 of 1
IR intensity: 0.2258 e^2/amu [ 220.2 km/mol ]
Displacements:
disp O  -0.000000000000000  -0.000000000000000   0.001580964749213
disp H  -0.000000000000000  -0.009807100617348  -0.012494506878516
disp H   0.000000000000000   0.009807100617348  -0.012494506878516

Vibrational free energy components at T = 298 K:
	ZPE:          0.020735
	Evib:         0.020740
	TSvib:        0.000005
	Avib:         0.020734

End date and time: Sun Mar  3 23:13:43 2019  (Duration: 0-0:04:13.46)
Done!
