ANIMSTEPS 9
CRYSTAL
PRIMVEC 1
  7.937658   0.000000   0.000000
  0.000000   9.357652   0.000000
  0.000000   0.000000   8.647655
PRIMCOORD 1
3 1
 8   0.000000   0.000000  -0.354999
 1   0.000000   0.710002   0.354999
 1   0.000000  -0.710002   0.354999
PRIMVEC 2
  7.937658   0.000000   0.000000
  0.000000   9.357652   0.000000
  0.000000   0.000000   8.647655
PRIMCOORD 2
3 1
 8   0.000000   0.000000  -0.354999
 1   0.000000   0.712006   0.342295
 1   0.000000  -0.712006   0.342295
PRIMVEC 3
  7.937658   0.000000   0.000000
  0.000000   9.357652   0.000000
  0.000000   0.000000   8.647655
PRIMCOORD 3
3 1
 8   0.000000   0.000000  -0.354999
 1   0.000000   0.739081   0.296828
 1   0.000000  -0.739081   0.296828
PRIMVEC 4
  7.937658   0.000000   0.000000
  0.000000   9.357652   0.000000
  0.000000   0.000000   8.647655
PRIMCOORD 4
3 1
 8   0.000000   0.000000  -0.354999
 1   0.000000   0.772176   0.255536
 1   0.000000  -0.772176   0.255536
PRIMVEC 5
  7.937658   0.000000   0.000000
  0.000000   9.357652   0.000000
  0.000000   0.000000   8.647655
PRIMCOORD 5
3 1
 8   0.000000   0.000000  -0.354999
 1   0.000000   0.772176   0.255536
 1   0.000000  -0.772176   0.255536
PRIMVEC 6
  7.937658   0.000000   0.000000
  0.000000   9.357652   0.000000
  0.000000   0.000000   8.647655
PRIMCOORD 6
3 1
 8   0.000000   0.000000  -0.354999
 1   0.000000   0.770425   0.254029
 1   0.000000  -0.770425   0.254029
PRIMVEC 7
  7.937658   0.000000   0.000000
  0.000000   9.357652   0.000000
  0.000000   0.000000   8.647655
PRIMCOORD 7
3 1
 8   0.000000   0.000000  -0.354999
 1   0.000000   0.768990   0.252211
 1   0.000000  -0.768990   0.252211
PRIMVEC 8
  7.937658   0.000000   0.000000
  0.000000   9.357652   0.000000
  0.000000   0.000000   8.647655
PRIMCOORD 8
3 1
 8   0.000000   0.000000  -0.354999
 1   0.000000   0.769195   0.251883
 1   0.000000  -0.769195   0.251883
PRIMVEC 9
  7.937658   0.000000   0.000000
  0.000000   9.357652   0.000000
  0.000000   0.000000   8.647655
PRIMCOORD 9
3 1
 8   0.000000   0.000000  -0.354999
 1   0.000000   0.770292   0.250441
 1   0.000000  -0.770292   0.250441
