--------------------------------------------------------------------------
Initialization of PSM library failed.

  Error: PSM is in the finalized state
--------------------------------------------------------------------------

*************** JDFTx 1.4.2 (git hash 74b6e54) ***************

Start date and time: Sun Mar  3 14:51:18 2019
Executable /home/jfm343/JDFTXDIR/build/jdftx with command-line: -i /home/jfm343/Documents/JDFTX_TUT/2/water.in
Running on hosts (process indices):  node2019.physics.cornell.edu (0)
Divided in process groups (process indices):  0 (0)
Resource initialization completed at t[s]:      0.00
Run totals: 1 processes, 12 threads, 0 GPUs


Input parsed successfully to the following command list (including defaults):

basis kpoint-dependent
coords-type Cartesian
core-overlap-check vector
coulomb-interaction Periodic
davidson-band-ratio 1.1
dump End ElecDensity Dtot Vscloc EigStats Ecomponents RealSpaceWfns
dump Electronic State
dump-interval Electronic 5
dump-name water.$VAR
elec-cutoff 20 100
elec-eigen-algo Davidson
elec-ex-corr gga-PBE
electronic-minimize  \
	dirUpdateScheme      FletcherReeves \
	linminMethod         DirUpdateRecommended \
	nIterations          100 \
	history              15 \
	knormThreshold       0 \
	energyDiffThreshold  1e-08 \
	nEnergyDiff          2 \
	alphaTstart          1 \
	alphaTmin            1e-10 \
	updateTestStepSize   yes \
	alphaTreduceFactor   0.1 \
	alphaTincreaseFactor 3 \
	nAlphaAdjustMax      3 \
	wolfeEnergy          0.0001 \
	wolfeGradient        0.9 \
	fdTest               no
exchange-regularization WignerSeitzTruncated
fluid None
fluid-ex-corr lda-TF lda-PZ
fluid-gummel-loop 10 1.000000e-05
fluid-minimize  \
	dirUpdateScheme      PolakRibiere \
	linminMethod         DirUpdateRecommended \
	nIterations          100 \
	history              15 \
	knormThreshold       0 \
	energyDiffThreshold  0 \
	nEnergyDiff          2 \
	alphaTstart          1 \
	alphaTmin            1e-10 \
	updateTestStepSize   yes \
	alphaTreduceFactor   0.1 \
	alphaTincreaseFactor 3 \
	nAlphaAdjustMax      3 \
	wolfeEnergy          0.0001 \
	wolfeGradient        0.9 \
	fdTest               no
fluid-solvent H2O 55.338 ScalarEOS \
	epsBulk 78.4 \
	pMol 0.92466 \
	epsInf 1.77 \
	Pvap 1.06736e-10 \
	sigmaBulk 4.62e-05 \
	Rvdw 2.61727 \
	Res 1.42 \
	tauNuc 343133 \
	omegaEl 0.55124 \
	gammaEl 0.257245
forces-output-coords Positions
ion H   0.000000000000000   1.130000000000000   1.450000000000000 1
ion H   0.000000000000000   1.130000000000000  -1.450000000000000 1
ion O   0.000000000000000   0.000000000000000   0.000000000000000 0
ion-species GBRV/h_pbe.uspp
ion-species GBRV/o_pbe.uspp
ion-width 0
ionic-minimize  \
	dirUpdateScheme      L-BFGS \
	linminMethod         DirUpdateRecommended \
	nIterations          0 \
	history              15 \
	knormThreshold       0.0001 \
	energyDiffThreshold  1e-06 \
	nEnergyDiff          2 \
	alphaTstart          1 \
	alphaTmin            1e-10 \
	updateTestStepSize   yes \
	alphaTreduceFactor   0.1 \
	alphaTincreaseFactor 3 \
	nAlphaAdjustMax      3 \
	wolfeEnergy          0.0001 \
	wolfeGradient        0.9 \
	fdTest               no
kpoint   0.000000000000   0.000000000000   0.000000000000  1.00000000000000
kpoint-folding 1 1 1 
latt-move-scale 1 1 1
latt-scale 1 1 1 
lattice Cubic 10
lattice-minimize  \
	dirUpdateScheme      L-BFGS \
	linminMethod         DirUpdateRecommended \
	nIterations          0 \
	history              15 \
	knormThreshold       0 \
	energyDiffThreshold  1e-06 \
	nEnergyDiff          2 \
	alphaTstart          1 \
	alphaTmin            1e-10 \
	updateTestStepSize   yes \
	alphaTreduceFactor   0.1 \
	alphaTincreaseFactor 3 \
	nAlphaAdjustMax      3 \
	wolfeEnergy          0.0001 \
	wolfeGradient        0.9 \
	fdTest               no
lcao-params -1 1e-06 0.001
pcm-variant GLSSA13
spintype no-spin
subspace-rotation-factor 1 yes
symmetries automatic
symmetry-threshold 0.0001



---------- Setting up symmetries ----------

Found 48 point-group symmetries of the bravais lattice
Found 4 space-group symmetries with basis
Applied RMS atom displacement 0 bohrs to make symmetries exact.

---------- Initializing the Grid ----------
R = 
[         10          0          0  ]
[          0         10          0  ]
[          0          0         10  ]
unit cell volume = 1000
G =
[   0.628319          0          0  ]
[          0   0.628319          0  ]
[          0          0   0.628319  ]
Minimum fftbox size, Smin = [  48  48  48  ]
Chosen fftbox size, S = [  48  48  48  ]

---------- Initializing tighter grid for wavefunction operations ----------
R = 
[         10          0          0  ]
[          0         10          0  ]
[          0          0         10  ]
unit cell volume = 1000
G =
[   0.628319          0          0  ]
[          0   0.628319          0  ]
[          0          0   0.628319  ]
Minimum fftbox size, Smin = [  44  44  44  ]
Chosen fftbox size, S = [  48  48  48  ]
Disabling tighter grid as its sample count matches original.

---------- Exchange Correlation functional ----------
Initalized PBE GGA exchange.
Initalized PBE GGA correlation.

---------- Setting up pseudopotentials ----------
Width of ionic core gaussian charges (only for fluid interactions / plotting) set to 0

Reading pseudopotential file '/home/jfm343/JDFTXDIR/build/pseudopotentials/GBRV/h_pbe.uspp':
  Title: H.  Created by USPP 7.3.6 on 2-4-15
  Reference state energy: -0.458849.  1 valence electrons in orbitals:
    |100>  occupation: 1  eigenvalue: -0.238595
  lMax: 0  lLocal: 1  QijEcut: 6
  2 projectors sampled on a log grid with 395 points:
    l: 0  eig: -0.238595  rCut: 1.2
    l: 0  eig: 1.000000  rCut: 1.2
  Transforming local potential to a uniform radial grid of dG=0.02 with 1311 points.
  Transforming nonlocal projectors to a uniform radial grid of dG=0.02 with 432 points.
  Transforming density augmentations to a uniform radial grid of dG=0.02 with 1311 points.
  Transforming atomic orbitals to a uniform radial grid of dG=0.02 with 432 points.
  Core radius for overlap checks: 1.20 bohrs.

Reading pseudopotential file '/home/jfm343/JDFTXDIR/build/pseudopotentials/GBRV/o_pbe.uspp':
  Title: O.  Created by USPP 7.3.6 on 3-2-2014
  Reference state energy: -15.894388.  6 valence electrons in orbitals:
    |200>  occupation: 2  eigenvalue: -0.878823
    |210>  occupation: 4  eigenvalue: -0.332131
  lMax: 2  lLocal: 2  QijEcut: 6
  5 projectors sampled on a log grid with 511 points:
    l: 0  eig: -0.878823  rCut: 1.25
    l: 0  eig: 0.000000  rCut: 1.25
    l: 1  eig: -0.332132  rCut: 1.25
    l: 1  eig: 0.000000  rCut: 1.25
    l: 2  eig: 1.000000  rCut: 1.25
  Partial core density with radius 0.7
  Transforming core density to a uniform radial grid of dG=0.02 with 1311 points.
  Transforming local potential to a uniform radial grid of dG=0.02 with 1311 points.
  Transforming nonlocal projectors to a uniform radial grid of dG=0.02 with 432 points.
  Transforming density augmentations to a uniform radial grid of dG=0.02 with 1311 points.
  Transforming atomic orbitals to a uniform radial grid of dG=0.02 with 432 points.
  Core radius for overlap checks: 1.25 bohrs.

Initialized 2 species with 3 total atoms.

Folded 1 k-points by 1x1x1 to 1 k-points.

---------- Setting up k-points, bands, fillings ----------
No reducable k-points. 
Computing the number of bands and number of electrons
Calculating initial fillings.
nElectrons:   8.000000   nBands: 4   nStates: 1

----- Setting up reduced wavefunction bases (one per k-point) -----
average nbasis = 4337.000 , ideal nbasis = 4272.076

---------- Setting up ewald sum ----------
Optimum gaussian width for ewald sums = 3.321925 bohr.
Real space sum over 1331 unit cells with max indices [  5  5  5  ]
Reciprocal space sum over 2197 terms with max indices [  6  6  6  ]

---------- Allocating electronic variables ----------
Initializing wave functions:  linear combination of atomic orbitals
H pseudo-atom occupations:   s ( 1 )
O pseudo-atom occupations:   s ( 2 )  p ( 4 )
	FillingsUpdate:  mu: -0.000000000  nElectrons: 8.000000
LCAOMinimize: Iter:   0  Etot: -17.0454509209631162  |grad|_K:  7.323e-02  alpha:  1.000e+00
	FillingsUpdate:  mu: -0.000000000  nElectrons: 8.000000
LCAOMinimize: Iter:   1  Etot: -17.1168727155712119  |grad|_K:  7.224e-03  alpha:  4.622e-01  linmin: -4.955e-01  cgtest:  8.158e-01  t[s]:      1.65
LCAOMinimize: Encountered beta<0, resetting CG.
	FillingsUpdate:  mu: -0.000000000  nElectrons: 8.000000
LCAOMinimize: Iter:   2  Etot: -17.1175826174607906  |grad|_K:  1.811e-03  alpha:  5.585e-01  linmin:  3.719e-02  cgtest: -1.212e-01  t[s]:      1.86
	FillingsUpdate:  mu: -0.000000000  nElectrons: 8.000000
LCAOMinimize: Iter:   3  Etot: -17.1176412679269490  |grad|_K:  3.288e-04  alpha:  7.552e-01  linmin: -2.044e-03  cgtest:  3.862e-01  t[s]:      2.06
LCAOMinimize: Encountered beta<0, resetting CG.
LCAOMinimize: None of the convergence criteria satisfied after 3 iterations.


---- Citations for features of the code used in this run ----

   Software package:
      R. Sundararaman, K. Letchworth-Weaver, K.A. Schwarz, D. Gunceler, Y. Ozhabes and T.A. Arias, 'JDFTx: software for joint density-functional theory', SoftwareX 6, 278 (2017)

   gga-PBE exchange-correlation functional:
      J.P. Perdew, K. Burke and M. Ernzerhof, Phys. Rev. Lett. 77, 3865 (1996)

   Pseudopotentials:
      KF Garrity, JW Bennett, KM Rabe and D Vanderbilt, Comput. Mater. Sci. 81, 446 (2014)

   Total energy minimization:
      T.A. Arias, M.C. Payne and J.D. Joannopoulos, Phys. Rev. Lett. 69, 1077 (1992)

   Smooth electrostatic potentials by atom-potential subtraction:
      R. Sundararaman and Y. Ping, J. Chem. Phys. 146, 104109 (2017)

This list may not be complete. Please suggest additional citations or
report any other bugs at https://github.com/shankar1729/jdftx/issues

Initialization completed successfully at t[s]:      2.06


-------- Electronic minimization -----------
ElecMinimize: Iter:   0  Etot: -17.117641267926953  |grad|_K:  3.465e-03  alpha:  1.000e+00
ElecMinimize: Iter:   1  Etot: -17.239814357446484  |grad|_K:  1.197e-03  alpha:  5.833e-01  linmin: -1.686e-02  t[s]:      2.51
ElecMinimize: Iter:   2  Etot: -17.256832803123778  |grad|_K:  7.075e-04  alpha:  6.779e-01  linmin: -6.768e-03  t[s]:      2.72
ElecMinimize: Iter:   3  Etot: -17.262779324810257  |grad|_K:  3.670e-04  alpha:  6.805e-01  linmin:  4.014e-03  t[s]:      2.93

Dumping 'water.wfns' ... done
ElecMinimize: Iter:   4  Etot: -17.264603323939163  |grad|_K:  1.889e-04  alpha:  7.834e-01  linmin: -2.062e-03  t[s]:      3.15
ElecMinimize: Iter:   5  Etot: -17.265214694663772  |grad|_K:  1.198e-04  alpha:  9.864e-01  linmin:  3.605e-03  t[s]:      3.36
ElecMinimize: Iter:   6  Etot: -17.265435540188157  |grad|_K:  7.865e-05  alpha:  8.910e-01  linmin: -9.594e-04  t[s]:      3.57
ElecMinimize: Iter:   7  Etot: -17.265518760445467  |grad|_K:  4.668e-05  alpha:  7.744e-01  linmin:  4.062e-04  t[s]:      3.78
ElecMinimize: Iter:   8  Etot: -17.265545184749158  |grad|_K:  2.321e-05  alpha:  6.993e-01  linmin: -4.051e-04  t[s]:      4.00

Dumping 'water.wfns' ... done
ElecMinimize: Iter:   9  Etot: -17.265551430411513  |grad|_K:  1.104e-05  alpha:  6.678e-01  linmin:  1.074e-04  t[s]:      4.22
ElecMinimize: Iter:  10  Etot: -17.265553111265334  |grad|_K:  5.900e-06  alpha:  7.946e-01  linmin: -1.221e-04  t[s]:      4.44
ElecMinimize: Iter:  11  Etot: -17.265553622673576  |grad|_K:  2.977e-06  alpha:  8.466e-01  linmin:  6.361e-05  t[s]:      4.65
ElecMinimize: Iter:  12  Etot: -17.265553726706326  |grad|_K:  1.326e-06  alpha:  6.768e-01  linmin: -1.390e-05  t[s]:      4.86
ElecMinimize: Iter:  13  Etot: -17.265553744626033  |grad|_K:  6.306e-07  alpha:  5.876e-01  linmin:  8.206e-05  t[s]:      5.07

Dumping 'water.wfns' ... done
ElecMinimize: Iter:  14  Etot: -17.265553749490927  |grad|_K:  3.156e-07  alpha:  7.054e-01  linmin: -2.918e-04  t[s]:      5.29
ElecMinimize: Iter:  15  Etot: -17.265553750936064  |grad|_K:  1.677e-07  alpha:  8.361e-01  linmin:  1.275e-03  t[s]:      5.50
ElecMinimize: Converged (|Delta Etot|<1.000000e-08 for 2 iters).
Setting wave functions to eigenvectors of Hamiltonian

# Ionic positions in cartesian coordinates:
ion H   0.000000000000000   1.130000000000000   1.450000000000000 1
ion H   0.000000000000000   1.130000000000000  -1.450000000000000 1
ion O   0.000000000000000   0.000000000000000   0.000000000000000 0


# Forces in Cartesian coordinates:
force H   0.000000000000000   0.004266513955540   0.003208237599357 1
force H   0.000000000000000   0.004266513955539  -0.003208237599356 1
force O   0.000000000000000  -0.008529379801758   0.000000000000000 0

# Energy components:
   Eewald =       -2.1027929252573574
       EH =       12.6242910941434001
     Eloc =      -34.0924945113294058
      Enl =        2.2283657545378097
      Exc =       -4.3528359581705303
 Exc_core =        0.0650494059523428
       KE =        8.3648633891876809
-------------------------------------
     Etot =      -17.2655537509360641

IonicMinimize: Iter:   0  Etot: -17.265553750936064  |grad|_K:  3.082e-03  t[s]:      5.65
IonicMinimize: None of the convergence criteria satisfied after 0 iterations.

#--- Lowdin population analysis ---
# oxidation-state H +0.433 +0.433
# oxidation-state O -0.751


Dumping 'water.n' ... done
Dumping 'water.d_tot' ... done
Dumping 'water.Vscloc' ... done
Dumping 'water.eigStats' ... 
	eMin: -0.893105 at state 0 ( [ +0.000000 +0.000000 +0.000000 ] spin 0 )
	HOMO: -0.231147 at state 0 ( [ +0.000000 +0.000000 +0.000000 ] spin 0 )
	mu  : unavailable
	LUMO: unavailable
	eMax: -0.231147 at state 0 ( [ +0.000000 +0.000000 +0.000000 ] spin 0 )
	HOMO-LUMO gap: unavailable
	Optical gap  : unavailable
Dumping 'water.Ecomponents' ... done
Dumping 'water.wfns_0_0.rs' ... done
Dumping 'water.wfns_0_1.rs' ... done
Dumping 'water.wfns_0_2.rs' ... done
Dumping 'water.wfns_0_3.rs' ... done
End date and time: Sun Mar  3 14:51:24 2019  (Duration: 0-0:00:05.83)
Done!
