
*************** JDFTx 1.4.2  ***************

Start date and time: Mon Mar  4 20:38:57 2019
Executable jdftx with command-line: -i bandstruct.in
Running on hosts (process indices):  Juans-MBP.lan1 (0-3)
Divided in process groups (process indices):  0 (0)  1 (1)  2 (2)  3 (3)
Resource initialization completed at t[s]:      0.00
Run totals: 4 processes, 12 threads, 0 GPUs


Input parsed successfully to the following command list (including defaults):

basis kpoint-dependent
coords-type Lattice
core-overlap-check vector
coulomb-interaction Periodic
davidson-band-ratio 1.1
dump End BandEigs
dump-name bandstruct.$VAR
elec-cutoff 20 200
elec-eigen-algo Davidson
elec-ex-corr gga-PBE
elec-n-bands 9
electronic-minimize  \
	dirUpdateScheme      FletcherReeves \
	linminMethod         DirUpdateRecommended \
	nIterations          100 \
	history              15 \
	knormThreshold       0 \
	energyDiffThreshold  1e-08 \
	nEnergyDiff          2 \
	alphaTstart          1 \
	alphaTmin            1e-10 \
	updateTestStepSize   yes \
	alphaTreduceFactor   0.1 \
	alphaTincreaseFactor 3 \
	nAlphaAdjustMax      3 \
	wolfeEnergy          0.0001 \
	wolfeGradient        0.9 \
	fdTest               no
exchange-regularization WignerSeitzTruncated
fix-electron-density totalE.$VAR
fluid None
fluid-ex-corr lda-TF lda-PZ
fluid-gummel-loop 10 1.000000e-05
fluid-minimize  \
	dirUpdateScheme      PolakRibiere \
	linminMethod         DirUpdateRecommended \
	nIterations          100 \
	history              15 \
	knormThreshold       0 \
	energyDiffThreshold  0 \
	nEnergyDiff          2 \
	alphaTstart          1 \
	alphaTmin            1e-10 \
	updateTestStepSize   yes \
	alphaTreduceFactor   0.1 \
	alphaTincreaseFactor 3 \
	nAlphaAdjustMax      3 \
	wolfeEnergy          0.0001 \
	wolfeGradient        0.9 \
	fdTest               no
fluid-solvent H2O 55.338 ScalarEOS \
	epsBulk 78.4 \
	pMol 0.92466 \
	epsInf 1.77 \
	Pvap 1.06736e-10 \
	sigmaBulk 4.62e-05 \
	Rvdw 2.61727 \
	Res 1.42
forces-output-coords Positions
ion Pt   0.000000000000000   0.000000000000000   0.000000000000000 0
ion-species Pt.pbe-n-rrkjus_psl.0.1.UPF
ion-width 0
ionic-minimize  \
	dirUpdateScheme      L-BFGS \
	linminMethod         DirUpdateRecommended \
	nIterations          0 \
	history              15 \
	knormThreshold       0.0001 \
	energyDiffThreshold  1e-06 \
	nEnergyDiff          2 \
	alphaTstart          1 \
	alphaTmin            1e-10 \
	updateTestStepSize   yes \
	alphaTreduceFactor   0.1 \
	alphaTincreaseFactor 3 \
	nAlphaAdjustMax      3 \
	wolfeEnergy          0.0001 \
	wolfeGradient        0.9 \
	fdTest               no
kpoint   0.000000000000   0.000000000000   0.000000000000  0.01449275362319
kpoint   0.000000000000   0.033333333333   0.033333333333  0.01449275362319
kpoint   0.000000000000   0.066666666667   0.066666666667  0.01449275362319
kpoint   0.000000000000   0.100000000000   0.100000000000  0.01449275362319
kpoint   0.000000000000   0.133333333333   0.133333333333  0.01449275362319
kpoint   0.000000000000   0.166666666667   0.166666666667  0.01449275362319
kpoint   0.000000000000   0.200000000000   0.200000000000  0.01449275362319
kpoint   0.000000000000   0.233333333333   0.233333333333  0.01449275362319
kpoint   0.000000000000   0.266666666667   0.266666666667  0.01449275362319
kpoint   0.000000000000   0.300000000000   0.300000000000  0.01449275362319
kpoint   0.000000000000   0.333333333333   0.333333333333  0.01449275362319
kpoint   0.000000000000   0.366666666667   0.366666666667  0.01449275362319
kpoint   0.000000000000   0.400000000000   0.400000000000  0.01449275362319
kpoint   0.000000000000   0.433333333333   0.433333333333  0.01449275362319
kpoint   0.000000000000   0.466666666667   0.466666666667  0.01449275362319
kpoint   0.000000000000   0.500000000000   0.500000000000  0.01449275362319
kpoint   0.031250000000   0.531250000000   0.500000000000  0.01449275362319
kpoint   0.062500000000   0.562500000000   0.500000000000  0.01449275362319
kpoint   0.093750000000   0.593750000000   0.500000000000  0.01449275362319
kpoint   0.125000000000   0.625000000000   0.500000000000  0.01449275362319
kpoint   0.156250000000   0.656250000000   0.500000000000  0.01449275362319
kpoint   0.187500000000   0.687500000000   0.500000000000  0.01449275362319
kpoint   0.218750000000   0.718750000000   0.500000000000  0.01449275362319
kpoint   0.250000000000   0.750000000000   0.500000000000  0.01449275362319
kpoint   0.281250000000   0.718750000000   0.500000000000  0.01449275362319
kpoint   0.312500000000   0.687500000000   0.500000000000  0.01449275362319
kpoint   0.343750000000   0.656250000000   0.500000000000  0.01449275362319
kpoint   0.375000000000   0.625000000000   0.500000000000  0.01449275362319
kpoint   0.406250000000   0.593750000000   0.500000000000  0.01449275362319
kpoint   0.437500000000   0.562500000000   0.500000000000  0.01449275362319
kpoint   0.468750000000   0.531250000000   0.500000000000  0.01449275362319
kpoint   0.500000000000   0.500000000000   0.500000000000  0.01449275362319
kpoint   0.472222222222   0.472222222222   0.472222222222  0.01449275362319
kpoint   0.444444444444   0.444444444444   0.444444444444  0.01449275362319
kpoint   0.416666666667   0.416666666667   0.416666666667  0.01449275362319
kpoint   0.388888888889   0.388888888889   0.388888888889  0.01449275362319
kpoint   0.361111111111   0.361111111111   0.361111111111  0.01449275362319
kpoint   0.333333333333   0.333333333333   0.333333333333  0.01449275362319
kpoint   0.305555555556   0.305555555556   0.305555555556  0.01449275362319
kpoint   0.277777777778   0.277777777778   0.277777777778  0.01449275362319
kpoint   0.250000000000   0.250000000000   0.250000000000  0.01449275362319
kpoint   0.222222222222   0.222222222222   0.222222222222  0.01449275362319
kpoint   0.194444444444   0.194444444444   0.194444444444  0.01449275362319
kpoint   0.166666666667   0.166666666667   0.166666666667  0.01449275362319
kpoint   0.138888888889   0.138888888889   0.138888888889  0.01449275362319
kpoint   0.111111111111   0.111111111111   0.111111111111  0.01449275362319
kpoint   0.083333333333   0.083333333333   0.083333333333  0.01449275362319
kpoint   0.055555555556   0.055555555556   0.055555555556  0.01449275362319
kpoint   0.027777777778   0.027777777778   0.027777777778  0.01449275362319
kpoint   0.000000000000   0.000000000000   0.000000000000  0.01449275362319
kpoint   0.019736842105   0.039473684211   0.019736842105  0.01449275362319
kpoint   0.039473684211   0.078947368421   0.039473684211  0.01449275362319
kpoint   0.059210526316   0.118421052632   0.059210526316  0.01449275362319
kpoint   0.078947368421   0.157894736842   0.078947368421  0.01449275362319
kpoint   0.098684210526   0.197368421053   0.098684210526  0.01449275362319
kpoint   0.118421052632   0.236842105263   0.118421052632  0.01449275362319
kpoint   0.138157894737   0.276315789474   0.138157894737  0.01449275362319
kpoint   0.157894736842   0.315789473684   0.157894736842  0.01449275362319
kpoint   0.177631578947   0.355263157895   0.177631578947  0.01449275362319
kpoint   0.197368421053   0.394736842105   0.197368421053  0.01449275362319
kpoint   0.217105263158   0.434210526316   0.217105263158  0.01449275362319
kpoint   0.236842105263   0.473684210526   0.236842105263  0.01449275362319
kpoint   0.256578947368   0.513157894737   0.256578947368  0.01449275362319
kpoint   0.276315789474   0.552631578947   0.276315789474  0.01449275362319
kpoint   0.296052631579   0.592105263158   0.296052631579  0.01449275362319
kpoint   0.315789473684   0.631578947368   0.315789473684  0.01449275362319
kpoint   0.335526315789   0.671052631579   0.335526315789  0.01449275362319
kpoint   0.355263157895   0.710526315789   0.355263157895  0.01449275362319
kpoint   0.375000000000   0.750000000000   0.375000000000  0.01449275362319
kpoint-folding 1 1 1 
latt-move-scale 1 1 1
latt-scale 1 1 1 
lattice Face-Centered Cubic 7.41
lattice-minimize  \
	dirUpdateScheme      L-BFGS \
	linminMethod         DirUpdateRecommended \
	nIterations          0 \
	history              15 \
	knormThreshold       0 \
	energyDiffThreshold  1e-06 \
	nEnergyDiff          2 \
	alphaTstart          1 \
	alphaTmin            1e-10 \
	updateTestStepSize   yes \
	alphaTreduceFactor   0.1 \
	alphaTincreaseFactor 3 \
	nAlphaAdjustMax      3 \
	wolfeEnergy          0.0001 \
	wolfeGradient        0.9 \
	fdTest               no
lcao-params -1 1e-06 0.001
pcm-variant GLSSA13
spintype no-spin
subspace-rotation-factor 1 yes
symmetries none
symmetry-threshold 0.0001


Applied RMS atom displacement 0 bohrs to make symmetries exact.

---------- Initializing the Grid ----------
R = 
[          0      3.705      3.705  ]
[      3.705          0      3.705  ]
[      3.705      3.705          0  ]
unit cell volume = 101.717
G =
[  -0.847933   0.847933   0.847933  ]
[   0.847933  -0.847933   0.847933  ]
[   0.847933   0.847933  -0.847933  ]
Minimum fftbox size, Smin = [  36  36  36  ]
Chosen fftbox size, S = [  36  36  36  ]

---------- Initializing tighter grid for wavefunction operations ----------
R = 
[          0      3.705      3.705  ]
[      3.705          0      3.705  ]
[      3.705      3.705          0  ]
unit cell volume = 101.717
G =
[  -0.847933   0.847933   0.847933  ]
[   0.847933  -0.847933   0.847933  ]
[   0.847933   0.847933  -0.847933  ]
Minimum fftbox size, Smin = [  24  24  24  ]
Chosen fftbox size, S = [  24  24  24  ]

---------- Exchange Correlation functional ----------
Initalized PBE GGA exchange.
Initalized PBE GGA correlation.

---------- Setting up pseudopotentials ----------
Width of ionic core gaussian charges (only for fluid interactions / plotting) set to 0

Reading pseudopotential file 'Pt.pbe-n-rrkjus_psl.0.1.UPF':
  'Pt' pseudopotential, 'PBE' functional
  Generated using "atomic" code by A. Dal Corso  v.5.0.2 svn rev. 9415
  Author: ADC  Date: 11Sep2012.
  10 valence electrons, 3 orbitals, 6 projectors, 1277 radial grid points, with lMax = 2
  Transforming core density to a uniform radial grid of dG=0.02 with 2537 points.
  Transforming local potential to a uniform radial grid of dG=0.02 with 2537 points.
  Transforming nonlocal projectors to a uniform radial grid of dG=0.02 with 432 points.
  Transforming density augmentations to a uniform radial grid of dG=0.02 with 2537 points.
    6S    l: 0   occupation:  1.0   eigenvalue: -0.207964
    6P    l: 1   occupation:  0.0   eigenvalue: -0.030883
    5D    l: 2   occupation:  9.0   eigenvalue: -0.225676
  Transforming atomic orbitals to a uniform radial grid of dG=0.02 with 432 points.
  Core radius for overlap checks: 2.47 bohrs.

Initialized 1 species with 1 total atoms.

Folded 69 k-points by 1x1x1 to 69 k-points.

---------- Setting up k-points, bands, fillings ----------
No reducable k-points. 
Computing the number of bands and number of electrons
Calculating initial fillings.
nElectrons:  10.000000   nBands: 9   nStates: 69

----- Setting up reduced wavefunction bases (one per k-point) -----
average nbasis = 434.130 , ideal nbasis = 434.544

---------- Setting up ewald sum ----------
Optimum gaussian width for ewald sums = 1.888820 bohr.
Real space sum over 2197 unit cells with max indices [  6  6  6  ]
Reciprocal space sum over 2197 terms with max indices [  6  6  6  ]

---------- Allocating electronic variables ----------
Reading "n" from file 'totalE.n' ... done
Initializing wave functions:  linear combination of atomic orbitals


---- Citations for features of the code used in this run ----

   Software package:
      R. Sundararaman, K. Letchworth-Weaver, K.A. Schwarz, D. Gunceler, Y. Ozhabes and T.A. Arias, 'JDFTx: software for joint density-functional theory', SoftwareX 6, 278 (2017)

   gga-PBE exchange-correlation functional:
      J.P. Perdew, K. Burke and M. Ernzerhof, Phys. Rev. Lett. 77, 3865 (1996)

   Total energy minimization:
      T.A. Arias, M.C. Payne and J.D. Joannopoulos, Phys. Rev. Lett. 69, 1077 (1992)

This list may not be complete. Please suggest additional citations or
report any other bugs at https://github.com/shankar1729/jdftx/issues

Initialization completed successfully at t[s]:      0.83


----------- Band structure minimization -------------
Minimization will be done independently for each quantum number.

---- Minimization of quantum number:     0  [ +0.0000000 +0.0000000 +0.0000000 ]  0.028985507 ----
BandDavidson: Iter:   0  Eband: +0.250755499780170
BandDavidson: Iter:   1  Eband: +0.214544514025306  dEband: -3.621099e-02  t[s]:      0.85
BandDavidson: Iter:   2  Eband: +0.209482754526996  dEband: -5.061759e-03  t[s]:      0.85
BandDavidson: Iter:   3  Eband: +0.207801105943277  dEband: -1.681649e-03  t[s]:      0.86
BandDavidson: Iter:   4  Eband: +0.207057923475599  dEband: -7.431825e-04  t[s]:      0.86
BandDavidson: Iter:   5  Eband: +0.206735937443342  dEband: -3.219860e-04  t[s]:      0.87
BandDavidson: Iter:   6  Eband: +0.206607844712788  dEband: -1.280927e-04  t[s]:      0.88
BandDavidson: Iter:   7  Eband: +0.206560152484097  dEband: -4.769223e-05  t[s]:      0.88
BandDavidson: Iter:   8  Eband: +0.206544543926984  dEband: -1.560856e-05  t[s]:      0.89
BandDavidson: Iter:   9  Eband: +0.206539696666050  dEband: -4.847261e-06  t[s]:      0.89
BandDavidson: Iter:  10  Eband: +0.206538283977705  dEband: -1.412688e-06  t[s]:      0.90
BandDavidson: Iter:  11  Eband: +0.206537842042542  dEband: -4.419352e-07  t[s]:      0.91
BandDavidson: Iter:  12  Eband: +0.206537681161995  dEband: -1.608805e-07  t[s]:      0.91
BandDavidson: Iter:  13  Eband: +0.206537615502850  dEband: -6.565914e-08  t[s]:      0.92
BandDavidson: Iter:  14  Eband: +0.206537586570992  dEband: -2.893186e-08  t[s]:      0.92
BandDavidson: Iter:  15  Eband: +0.206537573219333  dEband: -1.335166e-08  t[s]:      0.93
BandDavidson: Iter:  16  Eband: +0.206537567230557  dEband: -5.988776e-09  t[s]:      0.93
BandDavidson: Converged (dEband<1.000000e-08)

---- Minimization of quantum number:     1  [ +0.0000000 +0.0333333 +0.0333333 ]  0.028985507 ----
BandDavidson: Iter:   0  Eband: +0.249182213015091
BandDavidson: Iter:   1  Eband: +0.211316583174656  dEband: -3.786563e-02  t[s]:      0.94
BandDavidson: Iter:   2  Eband: +0.207736970005758  dEband: -3.579613e-03  t[s]:      0.95
BandDavidson: Iter:   3  Eband: +0.206835122047925  dEband: -9.018480e-04  t[s]:      0.95
BandDavidson: Iter:   4  Eband: +0.206655003354766  dEband: -1.801187e-04  t[s]:      0.96
BandDavidson: Iter:   5  Eband: +0.206492632532248  dEband: -1.623708e-04  t[s]:      0.96
BandDavidson: Iter:   6  Eband: +0.206422334862362  dEband: -7.029767e-05  t[s]:      0.97
BandDavidson: Iter:   7  Eband: +0.206390732730212  dEband: -3.160213e-05  t[s]:      0.97
BandDavidson: Iter:   8  Eband: +0.206376005172616  dEband: -1.472756e-05  t[s]:      0.98
BandDavidson: Iter:   9  Eband: +0.206368821822679  dEband: -7.183350e-06  t[s]:      0.99
BandDavidson: Iter:  10  Eband: +0.206365257601303  dEband: -3.564221e-06  t[s]:      0.99
BandDavidson: Iter:  11  Eband: +0.206363432090840  dEband: -1.825510e-06  t[s]:      1.00
BandDavidson: Iter:  12  Eband: +0.206362474804403  dEband: -9.572864e-07  t[s]:      1.00
BandDavidson: Iter:  13  Eband: +0.206361959601143  dEband: -5.152033e-07  t[s]:      1.01
BandDavidson: Iter:  14  Eband: +0.206361675022286  dEband: -2.845789e-07  t[s]:      1.02
BandDavidson: Iter:  15  Eband: +0.206361514075282  dEband: -1.609470e-07  t[s]:      1.02
BandDavidson: Iter:  16  Eband: +0.206361422347724  dEband: -9.172756e-08  t[s]:      1.03
BandDavidson: Iter:  17  Eband: +0.206361368640569  dEband: -5.370715e-08  t[s]:      1.03
BandDavidson: Iter:  18  Eband: +0.206361336548373  dEband: -3.209220e-08  t[s]:      1.04
BandDavidson: Iter:  19  Eband: +0.206361316896115  dEband: -1.965226e-08  t[s]:      1.04
BandDavidson: Iter:  20  Eband: +0.206361305018604  dEband: -1.187751e-08  t[s]:      1.05
BandDavidson: Iter:  21  Eband: +0.206361297485084  dEband: -7.533520e-09  t[s]:      1.05
BandDavidson: Converged (dEband<1.000000e-08)

---- Minimization of quantum number:     2  [ +0.0000000 +0.0666667 +0.0666667 ]  0.028985507 ----
BandDavidson: Iter:   0  Eband: +0.253198361315064
BandDavidson: Iter:   1  Eband: +0.211917578350417  dEband: -4.128078e-02  t[s]:      1.06
BandDavidson: Iter:   2  Eband: +0.208053756349607  dEband: -3.863822e-03  t[s]:      1.06
BandDavidson: Iter:   3  Eband: +0.206979476999725  dEband: -1.074279e-03  t[s]:      1.07
BandDavidson: Iter:   4  Eband: +0.206397543905342  dEband: -5.819331e-04  t[s]:      1.08
BandDavidson: Iter:   5  Eband: +0.206235377289781  dEband: -1.621666e-04  t[s]:      1.08
BandDavidson: Iter:   6  Eband: +0.206173685691125  dEband: -6.169160e-05  t[s]:      1.09
BandDavidson: Iter:   7  Eband: +0.206141791206949  dEband: -3.189448e-05  t[s]:      1.09
BandDavidson: Iter:   8  Eband: +0.206124424254264  dEband: -1.736695e-05  t[s]:      1.10
BandDavidson: Iter:   9  Eband: +0.206114303347412  dEband: -1.012091e-05  t[s]:      1.11
BandDavidson: Iter:  10  Eband: +0.206108322253331  dEband: -5.981094e-06  t[s]:      1.11
BandDavidson: Iter:  11  Eband: +0.206104653495177  dEband: -3.668758e-06  t[s]:      1.12
BandDavidson: Iter:  12  Eband: +0.206102395410995  dEband: -2.258084e-06  t[s]:      1.12
BandDavidson: Iter:  13  Eband: +0.206100980409669  dEband: -1.415001e-06  t[s]:      1.13
BandDavidson: Iter:  14  Eband: +0.206100099365718  dEband: -8.810440e-07  t[s]:      1.13
BandDavidson: Iter:  15  Eband: +0.206099543842331  dEband: -5.555234e-07  t[s]:      1.14
BandDavidson: Iter:  16  Eband: +0.206099196476670  dEband: -3.473657e-07  t[s]:      1.14
BandDavidson: Iter:  17  Eband: +0.206098976529354  dEband: -2.199473e-07  t[s]:      1.15
BandDavidson: Iter:  18  Eband: +0.206098843110734  dEband: -1.334186e-07  t[s]:      1.15
BandDavidson: Iter:  19  Eband: +0.206098758124008  dEband: -8.498673e-08  t[s]:      1.16
BandDavidson: Iter:  20  Eband: +0.206098704437962  dEband: -5.368605e-08  t[s]:      1.16
BandDavidson: Iter:  21  Eband: +0.206098668538995  dEband: -3.589897e-08  t[s]:      1.17
BandDavidson: Iter:  22  Eband: +0.206098643798506  dEband: -2.474049e-08  t[s]:      1.17
BandDavidson: Iter:  23  Eband: +0.206098626385742  dEband: -1.741276e-08  t[s]:      1.18
BandDavidson: Iter:  24  Eband: +0.206098614193336  dEband: -1.219241e-08  t[s]:      1.18
BandDavidson: Iter:  25  Eband: +0.206098605523478  dEband: -8.669858e-09  t[s]:      1.19
BandDavidson: Converged (dEband<1.000000e-08)

---- Minimization of quantum number:     3  [ +0.0000000 +0.1000000 +0.1000000 ]  0.028985507 ----
BandDavidson: Iter:   0  Eband: +0.240401165190799
BandDavidson: Iter:   1  Eband: +0.212489922026552  dEband: -2.791124e-02  t[s]:      1.20
BandDavidson: Iter:   2  Eband: +0.207328922462417  dEband: -5.161000e-03  t[s]:      1.20
BandDavidson: Iter:   3  Eband: +0.206266482025297  dEband: -1.062440e-03  t[s]:      1.21
BandDavidson: Iter:   4  Eband: +0.206098486603846  dEband: -1.679954e-04  t[s]:      1.21
BandDavidson: Iter:   5  Eband: +0.206052053682897  dEband: -4.643292e-05  t[s]:      1.22
BandDavidson: Iter:   6  Eband: +0.206034458923213  dEband: -1.759476e-05  t[s]:      1.23
BandDavidson: Iter:   7  Eband: +0.206026210688170  dEband: -8.248235e-06  t[s]:      1.23
BandDavidson: Iter:   8  Eband: +0.206022300321694  dEband: -3.910366e-06  t[s]:      1.24
BandDavidson: Iter:   9  Eband: +0.206020285120886  dEband: -2.015201e-06  t[s]:      1.24
BandDavidson: Iter:  10  Eband: +0.206019244727259  dEband: -1.040394e-06  t[s]:      1.25
BandDavidson: Iter:  11  Eband: +0.206018666211037  dEband: -5.785162e-07  t[s]:      1.26
BandDavidson: Iter:  12  Eband: +0.206018332253286  dEband: -3.339578e-07  t[s]:      1.26
BandDavidson: Iter:  13  Eband: +0.206018128264345  dEband: -2.039889e-07  t[s]:      1.27
BandDavidson: Iter:  14  Eband: +0.206018000652365  dEband: -1.276120e-07  t[s]:      1.27
BandDavidson: Iter:  15  Eband: +0.206017918565365  dEband: -8.208700e-08  t[s]:      1.28
BandDavidson: Iter:  16  Eband: +0.206017865355536  dEband: -5.320983e-08  t[s]:      1.28
BandDavidson: Iter:  17  Eband: +0.206017830397027  dEband: -3.495851e-08  t[s]:      1.29
BandDavidson: Iter:  18  Eband: +0.206017807460471  dEband: -2.293656e-08  t[s]:      1.30
BandDavidson: Iter:  19  Eband: +0.206017792118894  dEband: -1.534158e-08  t[s]:      1.30
BandDavidson: Iter:  20  Eband: +0.206017782065701  dEband: -1.005319e-08  t[s]:      1.31
BandDavidson: Iter:  21  Eband: +0.206017775218656  dEband: -6.847045e-09  t[s]:      1.31
BandDavidson: Converged (dEband<1.000000e-08)

---- Minimization of quantum number:     4  [ +0.0000000 +0.1333333 +0.1333333 ]  0.028985507 ----
BandDavidson: Iter:   0  Eband: +0.238680264603263
BandDavidson: Iter:   1  Eband: +0.212653213098072  dEband: -2.602705e-02  t[s]:      1.32
BandDavidson: Iter:   2  Eband: +0.207987508605421  dEband: -4.665704e-03  t[s]:      1.33
BandDavidson: Iter:   3  Eband: +0.206698403609275  dEband: -1.289105e-03  t[s]:      1.34
BandDavidson: Iter:   4  Eband: +0.206344275563840  dEband: -3.541280e-04  t[s]:      1.35
BandDavidson: Iter:   5  Eband: +0.206231416388692  dEband: -1.128592e-04  t[s]:      1.35
BandDavidson: Iter:   6  Eband: +0.206191341895083  dEband: -4.007449e-05  t[s]:      1.36
BandDavidson: Iter:   7  Eband: +0.206173280341099  dEband: -1.806155e-05  t[s]:      1.37
BandDavidson: Iter:   8  Eband: +0.206164569336185  dEband: -8.711005e-06  t[s]:      1.37
BandDavidson: Iter:   9  Eband: +0.206160159596043  dEband: -4.409740e-06  t[s]:      1.38
BandDavidson: Iter:  10  Eband: +0.206158010342792  dEband: -2.149253e-06  t[s]:      1.39
BandDavidson: Iter:  11  Eband: +0.206156843926537  dEband: -1.166416e-06  t[s]:      1.39
BandDavidson: Iter:  12  Eband: +0.206156194513671  dEband: -6.494129e-07  t[s]:      1.40
BandDavidson: Iter:  13  Eband: +0.206155811957956  dEband: -3.825557e-07  t[s]:      1.41
BandDavidson: Iter:  14  Eband: +0.206155584610558  dEband: -2.273474e-07  t[s]:      1.41
BandDavidson: Iter:  15  Eband: +0.206155445442539  dEband: -1.391680e-07  t[s]:      1.42
BandDavidson: Iter:  16  Eband: +0.206155360120309  dEband: -8.532223e-08  t[s]:      1.42
BandDavidson: Iter:  17  Eband: +0.206155307921643  dEband: -5.219867e-08  t[s]:      1.43
BandDavidson: Iter:  18  Eband: +0.206155275428629  dEband: -3.249301e-08  t[s]:      1.44
BandDavidson: Iter:  19  Eband: +0.206155254600706  dEband: -2.082792e-08  t[s]:      1.44
BandDavidson: Iter:  20  Eband: +0.206155241367549  dEband: -1.323316e-08  t[s]:      1.45
BandDavidson: Iter:  21  Eband: +0.206155232930625  dEband: -8.436924e-09  t[s]:      1.45
BandDavidson: Converged (dEband<1.000000e-08)

---- Minimization of quantum number:     5  [ +0.0000000 +0.1666667 +0.1666667 ]  0.028985507 ----
BandDavidson: Iter:   0  Eband: +0.236930214157683
BandDavidson: Iter:   1  Eband: +0.210325510787173  dEband: -2.660470e-02  t[s]:      1.46
BandDavidson: Iter:   2  Eband: +0.208166449769667  dEband: -2.159061e-03  t[s]:      1.47
BandDavidson: Iter:   3  Eband: +0.206960223261452  dEband: -1.206227e-03  t[s]:      1.48
BandDavidson: Iter:   4  Eband: +0.206621742809773  dEband: -3.384805e-04  t[s]:      1.49
BandDavidson: Iter:   5  Eband: +0.206528175629513  dEband: -9.356718e-05  t[s]:      1.49
BandDavidson: Iter:   6  Eband: +0.206496620011323  dEband: -3.155562e-05  t[s]:      1.50
BandDavidson: Iter:   7  Eband: +0.206483175802687  dEband: -1.344421e-05  t[s]:      1.51
BandDavidson: Iter:   8  Eband: +0.206476995293791  dEband: -6.180509e-06  t[s]:      1.51
BandDavidson: Iter:   9  Eband: +0.206473866794879  dEband: -3.128499e-06  t[s]:      1.52
BandDavidson: Iter:  10  Eband: +0.206472208533673  dEband: -1.658261e-06  t[s]:      1.53
BandDavidson: Iter:  11  Eband: +0.206471281743243  dEband: -9.267904e-07  t[s]:      1.53
BandDavidson: Iter:  12  Eband: +0.206470754967598  dEband: -5.267756e-07  t[s]:      1.54
BandDavidson: Iter:  13  Eband: +0.206470446922283  dEband: -3.080453e-07  t[s]:      1.55
BandDavidson: Iter:  14  Eband: +0.206470269338050  dEband: -1.775842e-07  t[s]:      1.55
BandDavidson: Iter:  15  Eband: +0.206470161279809  dEband: -1.080582e-07  t[s]:      1.56
BandDavidson: Iter:  16  Eband: +0.206470095823114  dEband: -6.545669e-08  t[s]:      1.56
BandDavidson: Iter:  17  Eband: +0.206470055893616  dEband: -3.992950e-08  t[s]:      1.57
BandDavidson: Iter:  18  Eband: +0.206470031134821  dEband: -2.475880e-08  t[s]:      1.57
BandDavidson: Iter:  19  Eband: +0.206470015536216  dEband: -1.559860e-08  t[s]:      1.58
BandDavidson: Iter:  20  Eband: +0.206470005645046  dEband: -9.891170e-09  t[s]:      1.58
BandDavidson: Converged (dEband<1.000000e-08)

---- Minimization of quantum number:     6  [ +0.0000000 +0.2000000 +0.2000000 ]  0.028985507 ----
BandDavidson: Iter:   0  Eband: +0.221919390023298
BandDavidson: Iter:   1  Eband: +0.209490620389881  dEband: -1.242877e-02  t[s]:      1.60
BandDavidson: Iter:   2  Eband: +0.207659762326383  dEband: -1.830858e-03  t[s]:      1.60
BandDavidson: Iter:   3  Eband: +0.207307756001408  dEband: -3.520063e-04  t[s]:      1.61
BandDavidson: Iter:   4  Eband: +0.207204437540988  dEband: -1.033185e-04  t[s]:      1.62
BandDavidson: Iter:   5  Eband: +0.207117117422218  dEband: -8.732012e-05  t[s]:      1.62
BandDavidson: Iter:   6  Eband: +0.207041985430242  dEband: -7.513199e-05  t[s]:      1.63
BandDavidson: Iter:   7  Eband: +0.206998305125247  dEband: -4.368030e-05  t[s]:      1.64
BandDavidson: Iter:   8  Eband: +0.206973669514885  dEband: -2.463561e-05  t[s]:      1.65
BandDavidson: Iter:   9  Eband: +0.206960125781469  dEband: -1.354373e-05  t[s]:      1.65
BandDavidson: Iter:  10  Eband: +0.206953606836742  dEband: -6.518945e-06  t[s]:      1.66
BandDavidson: Iter:  11  Eband: +0.206949822266316  dEband: -3.784570e-06  t[s]:      1.66
BandDavidson: Iter:  12  Eband: +0.206947542395568  dEband: -2.279871e-06  t[s]:      1.67
BandDavidson: Iter:  13  Eband: +0.206946225468133  dEband: -1.316927e-06  t[s]:      1.68
BandDavidson: Iter:  14  Eband: +0.206945410803765  dEband: -8.146644e-07  t[s]:      1.68
BandDavidson: Iter:  15  Eband: +0.206944976447439  dEband: -4.343563e-07  t[s]:      1.69
BandDavidson: Iter:  16  Eband: +0.206944715518942  dEband: -2.609285e-07  t[s]:      1.70
BandDavidson: Iter:  17  Eband: +0.206944550904892  dEband: -1.646141e-07  t[s]:      1.70
BandDavidson: Iter:  18  Eband: +0.206944444229930  dEband: -1.066750e-07  t[s]:      1.71
BandDavidson: Iter:  19  Eband: +0.206944376296115  dEband: -6.793382e-08  t[s]:      1.72
BandDavidson: Iter:  20  Eband: +0.206944332318411  dEband: -4.397770e-08  t[s]:      1.72
BandDavidson: Iter:  21  Eband: +0.206944304372725  dEband: -2.794569e-08  t[s]:      1.73
BandDavidson: Iter:  22  Eband: +0.206944286988760  dEband: -1.738396e-08  t[s]:      1.73
BandDavidson: Iter:  23  Eband: +0.206944275850480  dEband: -1.113828e-08  t[s]:      1.74
BandDavidson: Iter:  24  Eband: +0.206944268684802  dEband: -7.165678e-09  t[s]:      1.74
BandDavidson: Converged (dEband<1.000000e-08)

---- Minimization of quantum number:     7  [ +0.0000000 +0.2333333 +0.2333333 ]  0.028985507 ----
BandDavidson: Iter:   0  Eband: +0.222031253524277
BandDavidson: Iter:   1  Eband: +0.210010526842290  dEband: -1.202073e-02  t[s]:      1.75
BandDavidson: Iter:   2  Eband: +0.207360806205701  dEband: -2.649721e-03  t[s]:      1.76
BandDavidson: Iter:   3  Eband: +0.206679684475288  dEband: -6.811217e-04  t[s]:      1.77
BandDavidson: Iter:   4  Eband: +0.206392547592430  dEband: -2.871369e-04  t[s]:      1.77
BandDavidson: Iter:   5  Eband: +0.206224621982548  dEband: -1.679256e-04  t[s]:      1.78
BandDavidson: Iter:   6  Eband: +0.206083562376300  dEband: -1.410596e-04  t[s]:      1.79
BandDavidson: Iter:   7  Eband: +0.205980384231570  dEband: -1.031781e-04  t[s]:      1.80
BandDavidson: Iter:   8  Eband: +0.205925342015988  dEband: -5.504222e-05  t[s]:      1.80
BandDavidson: Iter:   9  Eband: +0.205901605416450  dEband: -2.373660e-05  t[s]:      1.81
BandDavidson: Iter:  10  Eband: +0.205891701727283  dEband: -9.903689e-06  t[s]:      1.82
BandDavidson: Iter:  11  Eband: +0.205887522429630  dEband: -4.179298e-06  t[s]:      1.83
BandDavidson: Iter:  12  Eband: +0.205885499252369  dEband: -2.023177e-06  t[s]:      1.83
BandDavidson: Iter:  13  Eband: +0.205884516012495  dEband: -9.832399e-07  t[s]:      1.84
BandDavidson: Iter:  14  Eband: +0.205883890434776  dEband: -6.255777e-07  t[s]:      1.84
BandDavidson: Iter:  15  Eband: +0.205883510905361  dEband: -3.795294e-07  t[s]:      1.85
BandDavidson: Iter:  16  Eband: +0.205883267941598  dEband: -2.429638e-07  t[s]:      1.86
BandDavidson: Iter:  17  Eband: +0.205883126437436  dEband: -1.415042e-07  t[s]:      1.86
BandDavidson: Iter:  18  Eband: +0.205883019185070  dEband: -1.072524e-07  t[s]:      1.87
BandDavidson: Iter:  19  Eband: +0.205882949401844  dEband: -6.978323e-08  t[s]:      1.87
BandDavidson: Iter:  20  Eband: +0.205882900176622  dEband: -4.922522e-08  t[s]:      1.88
BandDavidson: Iter:  21  Eband: +0.205882868596051  dEband: -3.158057e-08  t[s]:      1.89
BandDavidson: Iter:  22  Eband: +0.205882851429749  dEband: -1.716630e-08  t[s]:      1.89
BandDavidson: Iter:  23  Eband: +0.205882840069547  dEband: -1.136020e-08  t[s]:      1.90
BandDavidson: Iter:  24  Eband: +0.205882832250851  dEband: -7.818696e-09  t[s]:      1.90
BandDavidson: Converged (dEband<1.000000e-08)

---- Minimization of quantum number:     8  [ +0.0000000 +0.2666667 +0.2666667 ]  0.028985507 ----
BandDavidson: Iter:   0  Eband: +0.213369806550700
BandDavidson: Iter:   1  Eband: +0.206799309067424  dEband: -6.570497e-03  t[s]:      1.91
BandDavidson: Iter:   2  Eband: +0.205765110569374  dEband: -1.034198e-03  t[s]:      1.92
BandDavidson: Iter:   3  Eband: +0.205346351109185  dEband: -4.187595e-04  t[s]:      1.93
BandDavidson: Iter:   4  Eband: +0.205125840163083  dEband: -2.205109e-04  t[s]:      1.93
BandDavidson: Iter:   5  Eband: +0.204987163602000  dEband: -1.386766e-04  t[s]:      1.94
BandDavidson: Iter:   6  Eband: +0.204833521767919  dEband: -1.536418e-04  t[s]:      1.95
BandDavidson: Iter:   7  Eband: +0.204726189775900  dEband: -1.073320e-04  t[s]:      1.96
BandDavidson: Iter:   8  Eband: +0.204650263527420  dEband: -7.592625e-05  t[s]:      1.96
BandDavidson: Iter:   9  Eband: +0.204611219646019  dEband: -3.904388e-05  t[s]:      1.97
BandDavidson: Iter:  10  Eband: +0.204593001329091  dEband: -1.821832e-05  t[s]:      1.98
BandDavidson: Iter:  11  Eband: +0.204583495859910  dEband: -9.505469e-06  t[s]:      1.98
BandDavidson: Iter:  12  Eband: +0.204579103530133  dEband: -4.392330e-06  t[s]:      1.99
BandDavidson: Iter:  13  Eband: +0.204576605268785  dEband: -2.498261e-06  t[s]:      2.00
BandDavidson: Iter:  14  Eband: +0.204575656227779  dEband: -9.490410e-07  t[s]:      2.00
BandDavidson: Iter:  15  Eband: +0.204575271819203  dEband: -3.844086e-07  t[s]:      2.01
BandDavidson: Iter:  16  Eband: +0.204574999373026  dEband: -2.724462e-07  t[s]:      2.02
BandDavidson: Iter:  17  Eband: +0.204574828232874  dEband: -1.711402e-07  t[s]:      2.02
BandDavidson: Iter:  18  Eband: +0.204574699227336  dEband: -1.290055e-07  t[s]:      2.03
BandDavidson: Iter:  19  Eband: +0.204574602824907  dEband: -9.640243e-08  t[s]:      2.03
BandDavidson: Iter:  20  Eband: +0.204574530226970  dEband: -7.259794e-08  t[s]:      2.04
BandDavidson: Iter:  21  Eband: +0.204574477201652  dEband: -5.302532e-08  t[s]:      2.04
BandDavidson: Iter:  22  Eband: +0.204574432638591  dEband: -4.456306e-08  t[s]:      2.05
BandDavidson: Iter:  23  Eband: +0.204574396491406  dEband: -3.614718e-08  t[s]:      2.05
BandDavidson: Iter:  24  Eband: +0.204574365689457  dEband: -3.080195e-08  t[s]:      2.06
BandDavidson: Iter:  25  Eband: +0.204574340915589  dEband: -2.477387e-08  t[s]:      2.07
BandDavidson: Iter:  26  Eband: +0.204574320466064  dEband: -2.044952e-08  t[s]:      2.07
BandDavidson: Iter:  27  Eband: +0.204574304687960  dEband: -1.577810e-08  t[s]:      2.08
BandDavidson: Iter:  28  Eband: +0.204574291741913  dEband: -1.294605e-08  t[s]:      2.08
BandDavidson: Iter:  29  Eband: +0.204574281929210  dEband: -9.812703e-09  t[s]:      2.09
BandDavidson: Converged (dEband<1.000000e-08)

---- Minimization of quantum number:     9  [ +0.0000000 +0.3000000 +0.3000000 ]  0.028985507 ----
BandDavidson: Iter:   0  Eband: +0.209476596654888
BandDavidson: Iter:   1  Eband: +0.204443177261532  dEband: -5.033419e-03  t[s]:      2.10
BandDavidson: Iter:   2  Eband: +0.203538537820838  dEband: -9.046394e-04  t[s]:      2.11
BandDavidson: Iter:   3  Eband: +0.203148382753372  dEband: -3.901551e-04  t[s]:      2.11
BandDavidson: Iter:   4  Eband: +0.202944699423302  dEband: -2.036833e-04  t[s]:      2.12
BandDavidson: Iter:   5  Eband: +0.202823721948294  dEband: -1.209775e-04  t[s]:      2.13
BandDavidson: Iter:   6  Eband: +0.202743733571719  dEband: -7.998838e-05  t[s]:      2.14
BandDavidson: Iter:   7  Eband: +0.202691052991710  dEband: -5.268058e-05  t[s]:      2.14
BandDavidson: Iter:   8  Eband: +0.202660972807860  dEband: -3.008018e-05  t[s]:      2.15
BandDavidson: Iter:   9  Eband: +0.202643501322432  dEband: -1.747149e-05  t[s]:      2.16
BandDavidson: Iter:  10  Eband: +0.202632779000960  dEband: -1.072232e-05  t[s]:      2.16
BandDavidson: Iter:  11  Eband: +0.202624013473133  dEband: -8.765528e-06  t[s]:      2.17
BandDavidson: Iter:  12  Eband: +0.202617838788594  dEband: -6.174685e-06  t[s]:      2.17
BandDavidson: Iter:  13  Eband: +0.202613688092215  dEband: -4.150696e-06  t[s]:      2.18
BandDavidson: Iter:  14  Eband: +0.202611524441664  dEband: -2.163651e-06  t[s]:      2.19
BandDavidson: Iter:  15  Eband: +0.202610316738900  dEband: -1.207703e-06  t[s]:      2.19
BandDavidson: Iter:  16  Eband: +0.202609515491824  dEband: -8.012471e-07  t[s]:      2.20
BandDavidson: Iter:  17  Eband: +0.202609028247928  dEband: -4.872439e-07  t[s]:      2.20
BandDavidson: Iter:  18  Eband: +0.202608687206870  dEband: -3.410411e-07  t[s]:      2.21
BandDavidson: Iter:  19  Eband: +0.202608451966309  dEband: -2.352406e-07  t[s]:      2.21
BandDavidson: Iter:  20  Eband: +0.202608284492237  dEband: -1.674741e-07  t[s]:      2.22
BandDavidson: Iter:  21  Eband: +0.202608174525979  dEband: -1.099663e-07  t[s]:      2.22
BandDavidson: Iter:  22  Eband: +0.202608094601146  dEband: -7.992483e-08  t[s]:      2.23
BandDavidson: Iter:  23  Eband: +0.202608032558205  dEband: -6.204294e-08  t[s]:      2.23
BandDavidson: Iter:  24  Eband: +0.202607984452616  dEband: -4.810559e-08  t[s]:      2.24
BandDavidson: Iter:  25  Eband: +0.202607945892825  dEband: -3.855979e-08  t[s]:      2.24
BandDavidson: Iter:  26  Eband: +0.202607915184451  dEband: -3.070837e-08  t[s]:      2.25
BandDavidson: Iter:  27  Eband: +0.202607889948588  dEband: -2.523586e-08  t[s]:      2.25
BandDavidson: Iter:  28  Eband: +0.202607869217738  dEband: -2.073085e-08  t[s]:      2.26
BandDavidson: Iter:  29  Eband: +0.202607852130348  dEband: -1.708739e-08  t[s]:      2.26
BandDavidson: Iter:  30  Eband: +0.202607837984136  dEband: -1.414621e-08  t[s]:      2.27
BandDavidson: Iter:  31  Eband: +0.202607826542672  dEband: -1.144146e-08  t[s]:      2.27
BandDavidson: Iter:  32  Eband: +0.202607817212522  dEband: -9.330150e-09  t[s]:      2.28
BandDavidson: Converged (dEband<1.000000e-08)

---- Minimization of quantum number:    10  [ +0.0000000 +0.3333333 +0.3333333 ]  0.028985507 ----
BandDavidson: Iter:   0  Eband: +0.206149578279690
BandDavidson: Iter:   1  Eband: +0.201835873672312  dEband: -4.313705e-03  t[s]:      2.28
BandDavidson: Iter:   2  Eband: +0.200948223778732  dEband: -8.876499e-04  t[s]:      2.29
BandDavidson: Iter:   3  Eband: +0.200590421908263  dEband: -3.578019e-04  t[s]:      2.30
BandDavidson: Iter:   4  Eband: +0.200410415425908  dEband: -1.800065e-04  t[s]:      2.30
BandDavidson: Iter:   5  Eband: +0.200313466235164  dEband: -9.694919e-05  t[s]:      2.31
BandDavidson: Iter:   6  Eband: +0.200255358566134  dEband: -5.810767e-05  t[s]:      2.32
BandDavidson: Iter:   7  Eband: +0.200219886191231  dEband: -3.547237e-05  t[s]:      2.32
BandDavidson: Iter:   8  Eband: +0.200199601441583  dEband: -2.028475e-05  t[s]:      2.33
BandDavidson: Iter:   9  Eband: +0.200186196152411  dEband: -1.340529e-05  t[s]:      2.34
BandDavidson: Iter:  10  Eband: +0.200179464792218  dEband: -6.731360e-06  t[s]:      2.35
BandDavidson: Iter:  11  Eband: +0.200175492207990  dEband: -3.972584e-06  t[s]:      2.35
BandDavidson: Iter:  12  Eband: +0.200173615405818  dEband: -1.876802e-06  t[s]:      2.36
BandDavidson: Iter:  13  Eband: +0.200172664887786  dEband: -9.505180e-07  t[s]:      2.37
BandDavidson: Iter:  14  Eband: +0.200172218840890  dEband: -4.460469e-07  t[s]:      2.37
BandDavidson: Iter:  15  Eband: +0.200172026578937  dEband: -1.922620e-07  t[s]:      2.38
BandDavidson: Iter:  16  Eband: +0.200171910786503  dEband: -1.157924e-07  t[s]:      2.39
BandDavidson: Iter:  17  Eband: +0.200171841284464  dEband: -6.950204e-08  t[s]:      2.39
BandDavidson: Iter:  18  Eband: +0.200171795124008  dEband: -4.616046e-08  t[s]:      2.40
BandDavidson: Iter:  19  Eband: +0.200171762849441  dEband: -3.227457e-08  t[s]:      2.41
BandDavidson: Iter:  20  Eband: +0.200171739183242  dEband: -2.366620e-08  t[s]:      2.41
BandDavidson: Iter:  21  Eband: +0.200171722051948  dEband: -1.713129e-08  t[s]:      2.42
BandDavidson: Iter:  22  Eband: +0.200171710170501  dEband: -1.188145e-08  t[s]:      2.42
BandDavidson: Iter:  23  Eband: +0.200171702578376  dEband: -7.592125e-09  t[s]:      2.43
BandDavidson: Converged (dEband<1.000000e-08)

---- Minimization of quantum number:    11  [ +0.0000000 +0.3666667 +0.3666667 ]  0.028985507 ----
BandDavidson: Iter:   0  Eband: +0.202215529717200
BandDavidson: Iter:   1  Eband: +0.199001612282636  dEband: -3.213917e-03  t[s]:      2.44
BandDavidson: Iter:   2  Eband: +0.198366034359609  dEband: -6.355779e-04  t[s]:      2.45
BandDavidson: Iter:   3  Eband: +0.198152661214363  dEband: -2.133731e-04  t[s]:      2.45
BandDavidson: Iter:   4  Eband: +0.198064306529058  dEband: -8.835469e-05  t[s]:      2.46
BandDavidson: Iter:   5  Eband: +0.198020726254705  dEband: -4.358027e-05  t[s]:      2.47
BandDavidson: Iter:   6  Eband: +0.197998510449505  dEband: -2.221581e-05  t[s]:      2.47
BandDavidson: Iter:   7  Eband: +0.197985840563991  dEband: -1.266989e-05  t[s]:      2.48
BandDavidson: Iter:   8  Eband: +0.197979986824632  dEband: -5.853739e-06  t[s]:      2.49
BandDavidson: Iter:   9  Eband: +0.197976910558049  dEband: -3.076267e-06  t[s]:      2.50
BandDavidson: Iter:  10  Eband: +0.197975422327655  dEband: -1.488230e-06  t[s]:      2.50
BandDavidson: Iter:  11  Eband: +0.197974691488979  dEband: -7.308387e-07  t[s]:      2.51
BandDavidson: Iter:  12  Eband: +0.197974308849606  dEband: -3.826394e-07  t[s]:      2.52
BandDavidson: Iter:  13  Eband: +0.197974099630443  dEband: -2.092192e-07  t[s]:      2.52
BandDavidson: Iter:  14  Eband: +0.197973988910829  dEband: -1.107196e-07  t[s]:      2.53
BandDavidson: Iter:  15  Eband: +0.197973929600222  dEband: -5.931061e-08  t[s]:      2.54
BandDavidson: Iter:  16  Eband: +0.197973899942881  dEband: -2.965734e-08  t[s]:      2.55
BandDavidson: Iter:  17  Eband: +0.197973885432674  dEband: -1.451021e-08  t[s]:      2.55
BandDavidson: Iter:  18  Eband: +0.197973878660301  dEband: -6.772373e-09  t[s]:      2.56
BandDavidson: Converged (dEband<1.000000e-08)

---- Minimization of quantum number:    12  [ +0.0000000 +0.4000000 +0.4000000 ]  0.028985507 ----
BandDavidson: Iter:   0  Eband: +0.199584578735443
BandDavidson: Iter:   1  Eband: +0.196944834880880  dEband: -2.639744e-03  t[s]:      2.57
BandDavidson: Iter:   2  Eband: +0.196505891680420  dEband: -4.389432e-04  t[s]:      2.58
BandDavidson: Iter:   3  Eband: +0.196338549952842  dEband: -1.673417e-04  t[s]:      2.58
BandDavidson: Iter:   4  Eband: +0.196263176125038  dEband: -7.537383e-05  t[s]:      2.59
BandDavidson: Iter:   5  Eband: +0.196227394279002  dEband: -3.578185e-05  t[s]:      2.60
BandDavidson: Iter:   6  Eband: +0.196212167232974  dEband: -1.522705e-05  t[s]:      2.61
BandDavidson: Iter:   7  Eband: +0.196204986427482  dEband: -7.180805e-06  t[s]:      2.61
BandDavidson: Iter:   8  Eband: +0.196202038696933  dEband: -2.947731e-06  t[s]:      2.62
BandDavidson: Iter:   9  Eband: +0.196200630820835  dEband: -1.407876e-06  t[s]:      2.63
BandDavidson: Iter:  10  Eband: +0.196200058667157  dEband: -5.721537e-07  t[s]:      2.63
BandDavidson: Iter:  11  Eband: +0.196199811972342  dEband: -2.466948e-07  t[s]:      2.64
BandDavidson: Iter:  12  Eband: +0.196199709837744  dEband: -1.021346e-07  t[s]:      2.65
BandDavidson: Iter:  13  Eband: +0.196199661660434  dEband: -4.817731e-08  t[s]:      2.66
BandDavidson: Iter:  14  Eband: +0.196199641095218  dEband: -2.056522e-08  t[s]:      2.66
BandDavidson: Iter:  15  Eband: +0.196199632516206  dEband: -8.579011e-09  t[s]:      2.67
BandDavidson: Converged (dEband<1.000000e-08)

---- Minimization of quantum number:    13  [ +0.0000000 +0.4333333 +0.4333333 ]  0.028985507 ----
BandDavidson: Iter:   0  Eband: +0.197623542906357
BandDavidson: Iter:   1  Eband: +0.195338060619657  dEband: -2.285482e-03  t[s]:      2.68
BandDavidson: Iter:   2  Eband: +0.195048635265995  dEband: -2.894254e-04  t[s]:      2.69
BandDavidson: Iter:   3  Eband: +0.194949065935213  dEband: -9.956933e-05  t[s]:      2.69
BandDavidson: Iter:   4  Eband: +0.194920109822428  dEband: -2.895611e-05  t[s]:      2.70
BandDavidson: Iter:   5  Eband: +0.194911497358535  dEband: -8.612464e-06  t[s]:      2.71
BandDavidson: Iter:   6  Eband: +0.194908755928736  dEband: -2.741430e-06  t[s]:      2.71
BandDavidson: Iter:   7  Eband: +0.194907840526104  dEband: -9.154026e-07  t[s]:      2.72
BandDavidson: Iter:   8  Eband: +0.194907500670603  dEband: -3.398555e-07  t[s]:      2.73
BandDavidson: Iter:   9  Eband: +0.194907356290044  dEband: -1.443806e-07  t[s]:      2.73
BandDavidson: Iter:  10  Eband: +0.194907290752736  dEband: -6.553731e-08  t[s]:      2.74
BandDavidson: Iter:  11  Eband: +0.194907256920006  dEband: -3.383273e-08  t[s]:      2.75
BandDavidson: Iter:  12  Eband: +0.194907242159189  dEband: -1.476082e-08  t[s]:      2.75
BandDavidson: Iter:  13  Eband: +0.194907235702489  dEband: -6.456700e-09  t[s]:      2.76
BandDavidson: Converged (dEband<1.000000e-08)

---- Minimization of quantum number:    14  [ +0.0000000 +0.4666667 +0.4666667 ]  0.028985507 ----
BandDavidson: Iter:   0  Eband: +0.196475271706460
BandDavidson: Iter:   1  Eband: +0.194510988691682  dEband: -1.964283e-03  t[s]:      2.77
BandDavidson: Iter:   2  Eband: +0.194238966807787  dEband: -2.720219e-04  t[s]:      2.77
BandDavidson: Iter:   3  Eband: +0.194162057604519  dEband: -7.690920e-05  t[s]:      2.78
BandDavidson: Iter:   4  Eband: +0.194136150833841  dEband: -2.590677e-05  t[s]:      2.79
BandDavidson: Iter:   5  Eband: +0.194127956165125  dEband: -8.194669e-06  t[s]:      2.79
BandDavidson: Iter:   6  Eband: +0.194125427174651  dEband: -2.528990e-06  t[s]:      2.80
BandDavidson: Iter:   7  Eband: +0.194124554337930  dEband: -8.728367e-07  t[s]:      2.81
BandDavidson: Iter:   8  Eband: +0.194124245038234  dEband: -3.092997e-07  t[s]:      2.81
BandDavidson: Iter:   9  Eband: +0.194124116189517  dEband: -1.288487e-07  t[s]:      2.82
BandDavidson: Iter:  10  Eband: +0.194124062023556  dEband: -5.416596e-08  t[s]:      2.83
BandDavidson: Iter:  11  Eband: +0.194124036896209  dEband: -2.512735e-08  t[s]:      2.84
BandDavidson: Iter:  12  Eband: +0.194124025144055  dEband: -1.175215e-08  t[s]:      2.84
BandDavidson: Iter:  13  Eband: +0.194124019295354  dEband: -5.848701e-09  t[s]:      2.85
BandDavidson: Converged (dEband<1.000000e-08)

---- Minimization of quantum number:    15  [ +0.0000000 +0.5000000 +0.5000000 ]  0.028985507 ----
BandDavidson: Iter:   0  Eband: +0.196253232811507
BandDavidson: Iter:   1  Eband: +0.194180538477196  dEband: -2.072694e-03  t[s]:      2.86
BandDavidson: Iter:   2  Eband: +0.193965411694249  dEband: -2.151268e-04  t[s]:      2.86
BandDavidson: Iter:   3  Eband: +0.193896423171459  dEband: -6.898852e-05  t[s]:      2.87
BandDavidson: Iter:   4  Eband: +0.193872367000747  dEband: -2.405617e-05  t[s]:      2.88
BandDavidson: Iter:   5  Eband: +0.193864863444011  dEband: -7.503557e-06  t[s]:      2.88
BandDavidson: Iter:   6  Eband: +0.193862798234793  dEband: -2.065209e-06  t[s]:      2.89
BandDavidson: Iter:   7  Eband: +0.193862125624558  dEband: -6.726102e-07  t[s]:      2.90
BandDavidson: Iter:   8  Eband: +0.193861861177162  dEband: -2.644474e-07  t[s]:      2.90
BandDavidson: Iter:   9  Eband: +0.193861735340334  dEband: -1.258368e-07  t[s]:      2.91
BandDavidson: Iter:  10  Eband: +0.193861679176815  dEband: -5.616352e-08  t[s]:      2.92
BandDavidson: Iter:  11  Eband: +0.193861658829462  dEband: -2.034735e-08  t[s]:      2.92
BandDavidson: Iter:  12  Eband: +0.193861648745933  dEband: -1.008353e-08  t[s]:      2.93
BandDavidson: Iter:  13  Eband: +0.193861643004149  dEband: -5.741784e-09  t[s]:      2.93
BandDavidson: Converged (dEband<1.000000e-08)

---- Minimization of quantum number:    16  [ +0.0312500 -0.4687500 +0.5000000 ]  0.028985507 ----
BandDavidson: Iter:   0  Eband: +0.196245908370132
BandDavidson: Iter:   1  Eband: +0.194098019103500  dEband: -2.147889e-03  t[s]:      2.94
BandDavidson: Iter:   2  Eband: +0.193842135563949  dEband: -2.558835e-04  t[s]:      2.94
BandDavidson: Iter:   3  Eband: +0.193796788755764  dEband: -4.534681e-05  t[s]:      2.95
BandDavidson: Iter:   4  Eband: +0.193783063749372  dEband: -1.372501e-05  t[s]:      2.95
BandDavidson: Iter:   5  Eband: +0.193777898497129  dEband: -5.165252e-06  t[s]:      2.96
BandDavidson: Iter:   6  Eband: +0.193775569197407  dEband: -2.329300e-06  t[s]:      2.97
BandDavidson: Iter:   7  Eband: +0.193774459298995  dEband: -1.109898e-06  t[s]:      2.97
BandDavidson: Iter:   8  Eband: +0.193773831948555  dEband: -6.273504e-07  t[s]:      2.98
BandDavidson: Iter:   9  Eband: +0.193773481712103  dEband: -3.502365e-07  t[s]:      2.98
BandDavidson: Iter:  10  Eband: +0.193773289762150  dEband: -1.919500e-07  t[s]:      2.99
BandDavidson: Iter:  11  Eband: +0.193773178614121  dEband: -1.111480e-07  t[s]:      2.99
BandDavidson: Iter:  12  Eband: +0.193773119912606  dEband: -5.870152e-08  t[s]:      3.00
BandDavidson: Iter:  13  Eband: +0.193773087994951  dEband: -3.191766e-08  t[s]:      3.01
BandDavidson: Iter:  14  Eband: +0.193773071616329  dEband: -1.637862e-08  t[s]:      3.01
BandDavidson: Iter:  15  Eband: +0.193773063356263  dEband: -8.260065e-09  t[s]:      3.02
BandDavidson: Converged (dEband<1.000000e-08)
Setting wave functions to eigenvectors of Hamiltonian

Dumping 'bandstruct.eigenvals' ... done
End date and time: Mon Mar  4 20:39:00 2019  (Duration: 0-0:00:03.13)
Done!
