
*************** JDFTx 1.4.2  ***************

Start date and time: Mon Mar  4 20:38:42 2019
Executable jdftx with command-line: -i totalE.in
Running on hosts (process indices):  Juans-MBP.lan1 (0-3)
Divided in process groups (process indices):  0 (0)  1 (1)  2 (2)  3 (3)
Resource initialization completed at t[s]:      0.00
Run totals: 4 processes, 12 threads, 0 GPUs


Input parsed successfully to the following command list (including defaults):

basis kpoint-dependent
coords-type Lattice
core-overlap-check vector
coulomb-interaction Periodic
davidson-band-ratio 1.1
dump End ElecDensity
dump-name totalE.$VAR
elec-cutoff 20 200
elec-eigen-algo Davidson
elec-ex-corr gga-PBE
elec-smearing Fermi 0.01
electronic-minimize  \
	dirUpdateScheme      FletcherReeves \
	linminMethod         DirUpdateRecommended \
	nIterations          100 \
	history              15 \
	knormThreshold       0 \
	energyDiffThreshold  1e-08 \
	nEnergyDiff          2 \
	alphaTstart          1 \
	alphaTmin            1e-10 \
	updateTestStepSize   yes \
	alphaTreduceFactor   0.1 \
	alphaTincreaseFactor 3 \
	nAlphaAdjustMax      3 \
	wolfeEnergy          0.0001 \
	wolfeGradient        0.9 \
	fdTest               no
electronic-scf  \
	nIterations	50 \
	energyDiffThreshold	1e-08 \
	residualThreshold	1e-07 \
	mixFraction	0.5 \
	qMetric	0.8 \
	history	10 \
	nEigSteps	2 \
	eigDiffThreshold	1e-08 \
	mixedVariable	Density \
	qKerker	0.8 \
	qKappa	-1 \
	verbose	no \
	mixFractionMag	1.5
exchange-regularization WignerSeitzTruncated
fluid None
fluid-ex-corr lda-TF lda-PZ
fluid-gummel-loop 10 1.000000e-05
fluid-minimize  \
	dirUpdateScheme      PolakRibiere \
	linminMethod         DirUpdateRecommended \
	nIterations          100 \
	history              15 \
	knormThreshold       0 \
	energyDiffThreshold  0 \
	nEnergyDiff          2 \
	alphaTstart          1 \
	alphaTmin            1e-10 \
	updateTestStepSize   yes \
	alphaTreduceFactor   0.1 \
	alphaTincreaseFactor 3 \
	nAlphaAdjustMax      3 \
	wolfeEnergy          0.0001 \
	wolfeGradient        0.9 \
	fdTest               no
fluid-solvent H2O 55.338 ScalarEOS \
	epsBulk 78.4 \
	pMol 0.92466 \
	epsInf 1.77 \
	Pvap 1.06736e-10 \
	sigmaBulk 4.62e-05 \
	Rvdw 2.61727 \
	Res 1.42
forces-output-coords Positions
ion Pt   0.000000000000000   0.000000000000000   0.000000000000000 0
ion-species Pt.pbe-n-rrkjus_psl.0.1.UPF
ion-width 0
ionic-minimize  \
	dirUpdateScheme      L-BFGS \
	linminMethod         DirUpdateRecommended \
	nIterations          0 \
	history              15 \
	knormThreshold       0.0001 \
	energyDiffThreshold  1e-06 \
	nEnergyDiff          2 \
	alphaTstart          1 \
	alphaTmin            1e-10 \
	updateTestStepSize   yes \
	alphaTreduceFactor   0.1 \
	alphaTincreaseFactor 3 \
	nAlphaAdjustMax      3 \
	wolfeEnergy          0.0001 \
	wolfeGradient        0.9 \
	fdTest               no
kpoint   0.000000000000   0.000000000000   0.000000000000  1.00000000000000
kpoint-folding 12 12 12 
latt-move-scale 1 1 1
latt-scale 1 1 1 
lattice Face-Centered Cubic 7.41
lattice-minimize  \
	dirUpdateScheme      L-BFGS \
	linminMethod         DirUpdateRecommended \
	nIterations          0 \
	history              15 \
	knormThreshold       0 \
	energyDiffThreshold  1e-06 \
	nEnergyDiff          2 \
	alphaTstart          1 \
	alphaTmin            1e-10 \
	updateTestStepSize   yes \
	alphaTreduceFactor   0.1 \
	alphaTincreaseFactor 3 \
	nAlphaAdjustMax      3 \
	wolfeEnergy          0.0001 \
	wolfeGradient        0.9 \
	fdTest               no
lcao-params -1 1e-06 0.01
pcm-variant GLSSA13
spintype no-spin
subspace-rotation-factor 1 yes
symmetries automatic
symmetry-threshold 0.0001



---------- Setting up symmetries ----------

Found 48 point-group symmetries of the bravais lattice
Found 48 space-group symmetries with basis
Applied RMS atom displacement 0 bohrs to make symmetries exact.

---------- Initializing the Grid ----------
R = 
[          0      3.705      3.705  ]
[      3.705          0      3.705  ]
[      3.705      3.705          0  ]
unit cell volume = 101.717
G =
[  -0.847933   0.847933   0.847933  ]
[   0.847933  -0.847933   0.847933  ]
[   0.847933   0.847933  -0.847933  ]
Minimum fftbox size, Smin = [  36  36  36  ]
Chosen fftbox size, S = [  36  36  36  ]

---------- Initializing tighter grid for wavefunction operations ----------
R = 
[          0      3.705      3.705  ]
[      3.705          0      3.705  ]
[      3.705      3.705          0  ]
unit cell volume = 101.717
G =
[  -0.847933   0.847933   0.847933  ]
[   0.847933  -0.847933   0.847933  ]
[   0.847933   0.847933  -0.847933  ]
Minimum fftbox size, Smin = [  24  24  24  ]
Chosen fftbox size, S = [  24  24  24  ]

---------- Exchange Correlation functional ----------
Initalized PBE GGA exchange.
Initalized PBE GGA correlation.

---------- Setting up pseudopotentials ----------
Width of ionic core gaussian charges (only for fluid interactions / plotting) set to 0

Reading pseudopotential file 'Pt.pbe-n-rrkjus_psl.0.1.UPF':
  'Pt' pseudopotential, 'PBE' functional
  Generated using "atomic" code by A. Dal Corso  v.5.0.2 svn rev. 9415
  Author: ADC  Date: 11Sep2012.
  10 valence electrons, 3 orbitals, 6 projectors, 1277 radial grid points, with lMax = 2
  Transforming core density to a uniform radial grid of dG=0.02 with 2537 points.
  Transforming local potential to a uniform radial grid of dG=0.02 with 2537 points.
  Transforming nonlocal projectors to a uniform radial grid of dG=0.02 with 432 points.
  Transforming density augmentations to a uniform radial grid of dG=0.02 with 2537 points.
    6S    l: 0   occupation:  1.0   eigenvalue: -0.207964
    6P    l: 1   occupation:  0.0   eigenvalue: -0.030883
    5D    l: 2   occupation:  9.0   eigenvalue: -0.225676
  Transforming atomic orbitals to a uniform radial grid of dG=0.02 with 432 points.
  Core radius for overlap checks: 2.47 bohrs.

Initialized 1 species with 1 total atoms.

Folded 1 k-points by 12x12x12 to 1728 k-points.

---------- Setting up k-points, bands, fillings ----------
Reduced to 72 k-points under symmetry. 
Computing the number of bands and number of electrons
Calculating initial fillings.
nElectrons:  10.000000   nBands: 9   nStates: 72

----- Setting up reduced wavefunction bases (one per k-point) -----
average nbasis = 434.744 , ideal nbasis = 434.544

---------- Setting up ewald sum ----------
Optimum gaussian width for ewald sums = 1.888820 bohr.
Real space sum over 2197 unit cells with max indices [  6  6  6  ]
Reciprocal space sum over 2197 terms with max indices [  6  6  6  ]

---------- Allocating electronic variables ----------
Initializing wave functions:  linear combination of atomic orbitals
Pt pseudo-atom occupations:   s ( 0 )  p ( 0 )  d ( 10 )
	FillingsUpdate:  mu: +0.618618400  nElectrons: 10.000000
LCAOMinimize: Iter:   0  F: -26.9045719759267712  |grad|_K:  3.736e-03  alpha:  1.000e+00
	FillingsUpdate:  mu: +0.668361877  nElectrons: 10.000000
LCAOMinimize: Iter:   1  F: -26.9394588920237226  |grad|_K:  1.698e-05  alpha:  6.679e-01  linmin:  3.245e-01  cgtest: -7.664e-01  t[s]:      1.44
	FillingsUpdate:  mu: +0.668367253  nElectrons: 10.000000
LCAOMinimize: Iter:   2  F: -26.9394592430282529  |grad|_K:  1.401e-05  alpha:  9.375e-01  linmin: -1.127e-05  cgtest:  8.126e-01  t[s]:      1.66
	FillingsUpdate:  mu: +0.668183831  nElectrons: 10.000000
LCAOMinimize: Iter:   3  F: -26.9394597074783526  |grad|_K:  1.353e-07  alpha:  6.572e-01  linmin: -1.111e-03  cgtest: -5.199e-03  t[s]:      1.87
LCAOMinimize: Converged (|Delta F|<1.000000e-06 for 2 iters).


---- Citations for features of the code used in this run ----

   Software package:
      R. Sundararaman, K. Letchworth-Weaver, K.A. Schwarz, D. Gunceler, Y. Ozhabes and T.A. Arias, 'JDFTx: software for joint density-functional theory', SoftwareX 6, 278 (2017)

   gga-PBE exchange-correlation functional:
      J.P. Perdew, K. Burke and M. Ernzerhof, Phys. Rev. Lett. 77, 3865 (1996)

This list may not be complete. Please suggest additional citations or
report any other bugs at https://github.com/shankar1729/jdftx/issues

Initialization completed successfully at t[s]:      1.89

	FillingsUpdate:  mu: +0.668183831  nElectrons: 10.000000

-------- Electronic minimization -----------
Will mix electronic density at each iteration.
	FillingsUpdate:  mu: +0.668183831  nElectrons: 10.000000
	FillingsUpdate:  mu: +0.665785876  nElectrons: 10.000000
SCF: Cycle:  0   F: -26.953528946226413   dF: -1.407e-02   |Residual|: 2.634e-02   |deigs|: 9.811e-02  t[s]:      2.43
	FillingsUpdate:  mu: +0.659716537  nElectrons: 10.000000
SCF: Cycle:  1   F: -26.954885693906622   dF: -1.357e-03   |Residual|: 1.081e-02   |deigs|: 1.175e-02  t[s]:      2.82
	FillingsUpdate:  mu: +0.657469181  nElectrons: 10.000000
SCF: Cycle:  2   F: -26.955055484996940   dF: -1.698e-04   |Residual|: 4.075e-03   |deigs|: 4.118e-03  t[s]:      3.20
	FillingsUpdate:  mu: +0.658052438  nElectrons: 10.000000
SCF: Cycle:  3   F: -26.955076533211397   dF: -2.105e-05   |Residual|: 9.345e-04   |deigs|: 1.020e-03  t[s]:      3.55
	FillingsUpdate:  mu: +0.657759761  nElectrons: 10.000000
SCF: Cycle:  4   F: -26.955080499799514   dF: -3.967e-06   |Residual|: 4.239e-04   |deigs|: 3.970e-04  t[s]:      3.92
	FillingsUpdate:  mu: +0.657870834  nElectrons: 10.000000
SCF: Cycle:  5   F: -26.955081446421342   dF: -9.466e-07   |Residual|: 8.030e-05   |deigs|: 1.670e-04  t[s]:      4.27
	FillingsUpdate:  mu: +0.657870582  nElectrons: 10.000000
SCF: Cycle:  6   F: -26.955081724699852   dF: -2.783e-07   |Residual|: 9.892e-05   |deigs|: 1.149e-04  t[s]:      4.62
	FillingsUpdate:  mu: +0.657869337  nElectrons: 10.000000
SCF: Cycle:  7   F: -26.955081816983864   dF: -9.228e-08   |Residual|: 1.046e-04   |deigs|: 7.639e-05  t[s]:      4.95
	FillingsUpdate:  mu: +0.657866960  nElectrons: 10.000000
SCF: Cycle:  8   F: -26.955081846556066   dF: -2.957e-08   |Residual|: 1.059e-04   |deigs|: 7.505e-05  t[s]:      5.28
	FillingsUpdate:  mu: +0.657866001  nElectrons: 10.000000
SCF: Cycle:  9   F: -26.955081854886313   dF: -8.330e-09   |Residual|: 1.005e-04   |deigs|: 6.009e-05  t[s]:      5.61
	FillingsUpdate:  mu: +0.657866924  nElectrons: 10.000000
SCF: Cycle: 10   F: -26.955081862333927   dF: -7.448e-09   |Residual|: 9.676e-05   |deigs|: 5.118e-05  t[s]:      5.94
SCF: Converged (|Delta E|<1.000000e-08 for 2 iters).


# Ionic positions in lattice coordinates:
ion Pt   0.000000000000000   0.000000000000000   0.000000000000000 0


# Forces in Lattice coordinates:
force Pt  -0.000000000000000   0.000000000000000  -0.000000000000000 0

# Energy components:
   Eewald =      -30.9369910533994066
       EH =        2.0555218781011435
     Eloc =        0.1605821192225877
      Enl =       -3.2155618933892129
      Exc =      -15.8642858094645351
 Exc_core =        9.3873391999778750
       KE =       11.4688968522339891
-------------------------------------
     Etot =      -26.9444987067175603
       TS =        0.0105831556163682
-------------------------------------
        F =      -26.9550818623339268

IonicMinimize: Iter:   0  F: -26.955081862333927  |grad|_K:  0.000e+00  t[s]:      5.99
IonicMinimize: Converged (|grad|_K<1.000000e-04).

#--- Lowdin population analysis ---
# oxidation-state Pt +0.008


Dumping 'totalE.n' ... done
End date and time: Mon Mar  4 20:38:48 2019  (Duration: 0-0:00:06.03)
Done!
