
*************** JDFTx 1.4.2  ***************

Start date and time: Mon Mar  4 09:44:44 2019
Executable jdftx with command-line: -i Si.in
Running on hosts (process indices):  dhcp-ccc-1230.eduroam.cornell.edu (0-3)
Divided in process groups (process indices):  0 (0)  1 (1)  2 (2)  3 (3)
Resource initialization completed at t[s]:      0.00
Run totals: 4 processes, 12 threads, 0 GPUs


Input parsed successfully to the following command list (including defaults):

basis kpoint-dependent
coords-type Lattice
core-overlap-check vector
coulomb-interaction Periodic
davidson-band-ratio 1.1
dump End ElecDensity
dump-name Si.$VAR
elec-cutoff 20 100
elec-eigen-algo Davidson
elec-ex-corr gga-PBE
electronic-minimize  \
	dirUpdateScheme      FletcherReeves \
	linminMethod         DirUpdateRecommended \
	nIterations          100 \
	history              15 \
	knormThreshold       0 \
	energyDiffThreshold  1e-08 \
	nEnergyDiff          2 \
	alphaTstart          1 \
	alphaTmin            1e-10 \
	updateTestStepSize   yes \
	alphaTreduceFactor   0.1 \
	alphaTincreaseFactor 3 \
	nAlphaAdjustMax      3 \
	wolfeEnergy          0.0001 \
	wolfeGradient        0.9 \
	fdTest               no
exchange-regularization WignerSeitzTruncated
fluid None
fluid-ex-corr lda-TF lda-PZ
fluid-gummel-loop 10 1.000000e-05
fluid-minimize  \
	dirUpdateScheme      PolakRibiere \
	linminMethod         DirUpdateRecommended \
	nIterations          100 \
	history              15 \
	knormThreshold       0 \
	energyDiffThreshold  0 \
	nEnergyDiff          2 \
	alphaTstart          1 \
	alphaTmin            1e-10 \
	updateTestStepSize   yes \
	alphaTreduceFactor   0.1 \
	alphaTincreaseFactor 3 \
	nAlphaAdjustMax      3 \
	wolfeEnergy          0.0001 \
	wolfeGradient        0.9 \
	fdTest               no
fluid-solvent H2O 55.338 ScalarEOS \
	epsBulk 78.4 \
	pMol 0.92466 \
	epsInf 1.77 \
	Pvap 1.06736e-10 \
	sigmaBulk 4.62e-05 \
	Rvdw 2.61727 \
	Res 1.42
forces-output-coords Positions
ion Si   0.000000000000000   0.000000000000000   0.000000000000000 0
ion Si   0.250000000000000   0.250000000000000   0.250000000000000 0
ion-species GBRV/$ID_pbe.uspp
ion-width 0
ionic-minimize  \
	dirUpdateScheme      L-BFGS \
	linminMethod         DirUpdateRecommended \
	nIterations          0 \
	history              15 \
	knormThreshold       0.0001 \
	energyDiffThreshold  1e-06 \
	nEnergyDiff          2 \
	alphaTstart          1 \
	alphaTmin            1e-10 \
	updateTestStepSize   yes \
	alphaTreduceFactor   0.1 \
	alphaTincreaseFactor 3 \
	nAlphaAdjustMax      3 \
	wolfeEnergy          0.0001 \
	wolfeGradient        0.9 \
	fdTest               no
kpoint   0.500000000000   0.500000000000   0.500000000000  1.00000000000000
kpoint-folding 12 12 12 
latt-move-scale 1 1 1
latt-scale 1.88973 1.88973 1.88973 
lattice Face-Centered Cubic 5.43
lattice-minimize  \
	dirUpdateScheme      L-BFGS \
	linminMethod         DirUpdateRecommended \
	nIterations          0 \
	history              15 \
	knormThreshold       0 \
	energyDiffThreshold  1e-06 \
	nEnergyDiff          2 \
	alphaTstart          1 \
	alphaTmin            1e-10 \
	updateTestStepSize   yes \
	alphaTreduceFactor   0.1 \
	alphaTincreaseFactor 3 \
	nAlphaAdjustMax      3 \
	wolfeEnergy          0.0001 \
	wolfeGradient        0.9 \
	fdTest               no
lcao-params -1 1e-06 0.001
pcm-variant GLSSA13
spintype no-spin
subspace-rotation-factor 1 yes
symmetries automatic
symmetry-threshold 0.0001



---------- Setting up symmetries ----------

Found 48 point-group symmetries of the bravais lattice
Found 48 space-group symmetries with basis
Applied RMS atom displacement 0 bohrs to make symmetries exact.

---------- Initializing the Grid ----------
R = 
[          0    5.13062    5.13062  ]
[    5.13062          0    5.13062  ]
[    5.13062    5.13062          0  ]
unit cell volume = 270.109
G =
[  -0.612323   0.612323   0.612323  ]
[   0.612323  -0.612323   0.612323  ]
[   0.612323   0.612323  -0.612323  ]
Minimum fftbox size, Smin = [  36  36  36  ]
Chosen fftbox size, S = [  36  36  36  ]

---------- Initializing tighter grid for wavefunction operations ----------
R = 
[          0    5.13062    5.13062  ]
[    5.13062          0    5.13062  ]
[    5.13062    5.13062          0  ]
unit cell volume = 270.109
G =
[  -0.612323   0.612323   0.612323  ]
[   0.612323  -0.612323   0.612323  ]
[   0.612323   0.612323  -0.612323  ]
Minimum fftbox size, Smin = [  32  32  32  ]
Chosen fftbox size, S = [  32  32  32  ]

---------- Exchange Correlation functional ----------
Initalized PBE GGA exchange.
Initalized PBE GGA correlation.

---------- Setting up pseudopotentials ----------
Width of ionic core gaussian charges (only for fluid interactions / plotting) set to 0

Reading pseudopotential file '/Users/juanmendezvalderrama/Documents/JDFTX/build/pseudopotentials/GBRV/si_pbe.uspp':
  Title: Si.  Created by USPP 7.3.6 on 14-9-2013
  Reference state energy: -4.599342.  4 valence electrons in orbitals:
    |300>  occupation: 2  eigenvalue: -0.397366
    |310>  occupation: 2  eigenvalue: -0.149981
  lMax: 2  lLocal: 3  QijEcut: 5
  6 projectors sampled on a log grid with 627 points:
    l: 0  eig: -0.397364  rCut: 1.6
    l: 0  eig: 1.000000  rCut: 1.6
    l: 1  eig: -0.149982  rCut: 1.6
    l: 1  eig: 1.000000  rCut: 1.6
    l: 2  eig: -0.100000  rCut: 1.7
    l: 2  eig: 0.100000  rCut: 1.7
  Partial core density with radius 1.45
  Transforming core density to a uniform radial grid of dG=0.02 with 1833 points.
  Transforming local potential to a uniform radial grid of dG=0.02 with 1833 points.
  Transforming nonlocal projectors to a uniform radial grid of dG=0.02 with 432 points.
  Transforming density augmentations to a uniform radial grid of dG=0.02 with 1833 points.
  Transforming atomic orbitals to a uniform radial grid of dG=0.02 with 432 points.
  Core radius for overlap checks: 1.70 bohrs.

Initialized 1 species with 2 total atoms.

Folded 1 k-points by 12x12x12 to 1728 k-points.

---------- Setting up k-points, bands, fillings ----------

WARNING: k-mesh symmetries are a subgroup of size 12
The effectively sampled k-mesh is a superset of the specified one,
and the answers need not match those with symmetries turned off.
Reduced to 182 k-points under symmetry. 
Computing the number of bands and number of electrons
Calculating initial fillings.
nElectrons:   8.000000   nBands: 4   nStates: 182

----- Setting up reduced wavefunction bases (one per k-point) -----
average nbasis = 1153.778 , ideal nbasis = 1153.925

---------- Setting up ewald sum ----------
Optimum gaussian width for ewald sums = 2.330237 bohr.
Real space sum over 1331 unit cells with max indices [  5  5  5  ]
Reciprocal space sum over 2197 terms with max indices [  6  6  6  ]

---------- Allocating electronic variables ----------
Initializing wave functions:  linear combination of atomic orbitals
Si pseudo-atom occupations:   s ( 2 )  p ( 2 )
	FillingsUpdate:  mu: +0.270759900  nElectrons: 8.000000
LCAOMinimize: Iter:   0  Etot: -7.8861318705264720  |grad|_K:  2.714e-05  alpha:  1.000e+00
	FillingsUpdate:  mu: +0.270696251  nElectrons: 8.000000
LCAOMinimize: Iter:   1  Etot: -7.8861370363248451  |grad|_K:  7.360e-07  alpha:  9.511e-01  linmin:  4.857e-04  cgtest: -3.178e-04  t[s]:      2.25
	FillingsUpdate:  mu: +0.270697805  nElectrons: 8.000000
LCAOMinimize: Iter:   2  Etot: -7.8861370402943303  |grad|_K:  1.112e-09  alpha:  9.942e-01  linmin: -2.971e-02  cgtest:  8.825e-02  t[s]:      2.84
LCAOMinimize: Encountered beta<0, resetting CG.
LCAOMinimize: 	Step increased Etot by 7.105427e-15, reducing alpha to 3.620655e-02.
LCAOMinimize: 	Step increased Etot by 1.243450e-14, reducing alpha to 3.620655e-03.
LCAOMinimize: 	Step increased Etot by 1.332268e-14, reducing alpha to 3.620655e-04.
LCAOMinimize: 	Step failed to reduce Etot after 3 attempts. Quitting step.
LCAOMinimize: 	Undoing step.
LCAOMinimize: 	Step failed along negative gradient direction.
LCAOMinimize: Probably at roundoff error limit. (Stopping)


---- Citations for features of the code used in this run ----

   Software package:
      R. Sundararaman, K. Letchworth-Weaver, K.A. Schwarz, D. Gunceler, Y. Ozhabes and T.A. Arias, 'JDFTx: software for joint density-functional theory', SoftwareX 6, 278 (2017)

   gga-PBE exchange-correlation functional:
      J.P. Perdew, K. Burke and M. Ernzerhof, Phys. Rev. Lett. 77, 3865 (1996)

   Pseudopotentials:
      KF Garrity, JW Bennett, KM Rabe and D Vanderbilt, Comput. Mater. Sci. 81, 446 (2014)

   Total energy minimization:
      T.A. Arias, M.C. Payne and J.D. Joannopoulos, Phys. Rev. Lett. 69, 1077 (1992)

This list may not be complete. Please suggest additional citations or
report any other bugs at https://github.com/shankar1729/jdftx/issues

Initialization completed successfully at t[s]:      4.68


-------- Electronic minimization -----------
ElecMinimize: Iter:   0  Etot: -7.886137040294328  |grad|_K:  1.799e-04  alpha:  1.000e+00
ElecMinimize: Iter:   1  Etot: -7.936750927531007  |grad|_K:  5.988e-05  alpha:  1.859e+00  linmin: -8.028e-03  t[s]:      5.73
ElecMinimize: Iter:   2  Etot: -7.942304602268470  |grad|_K:  1.749e-05  alpha:  1.837e+00  linmin: -2.457e-05  t[s]:      6.33
ElecMinimize: Iter:   3  Etot: -7.942789698697700  |grad|_K:  8.152e-06  alpha:  1.888e+00  linmin: -1.124e-05  t[s]:      6.92
ElecMinimize: Iter:   4  Etot: -7.942928284942402  |grad|_K:  5.192e-06  alpha:  2.482e+00  linmin: -6.813e-05  t[s]:      7.48
ElecMinimize: Iter:   5  Etot: -7.942975245258348  |grad|_K:  2.634e-06  alpha:  2.073e+00  linmin: -4.747e-06  t[s]:      8.06
ElecMinimize: Iter:   6  Etot: -7.942986360675709  |grad|_K:  1.286e-06  alpha:  1.906e+00  linmin:  7.262e-06  t[s]:      8.64
ElecMinimize: Iter:   7  Etot: -7.942988852437962  |grad|_K:  5.990e-07  alpha:  1.792e+00  linmin:  2.632e-06  t[s]:      9.20
ElecMinimize: Iter:   8  Etot: -7.942989422102665  |grad|_K:  3.126e-07  alpha:  1.889e+00  linmin:  3.581e-07  t[s]:      9.79
ElecMinimize: Iter:   9  Etot: -7.942989586373068  |grad|_K:  1.723e-07  alpha:  2.001e+00  linmin: -1.050e-06  t[s]:     10.38
ElecMinimize: Iter:  10  Etot: -7.942989635661895  |grad|_K:  9.242e-08  alpha:  1.976e+00  linmin: -2.502e-07  t[s]:     10.96
ElecMinimize: Iter:  11  Etot: -7.942989649621301  |grad|_K:  5.068e-08  alpha:  1.945e+00  linmin: -1.275e-07  t[s]:     11.54
ElecMinimize: Iter:  12  Etot: -7.942989653872511  |grad|_K:  2.821e-08  alpha:  1.970e+00  linmin:  1.164e-07  t[s]:     12.13
ElecMinimize: Iter:  13  Etot: -7.942989655205507  |grad|_K:  1.592e-08  alpha:  1.994e+00  linmin:  4.689e-06  t[s]:     12.68
ElecMinimize: Converged (|Delta Etot|<1.000000e-08 for 2 iters).
Setting wave functions to eigenvectors of Hamiltonian

# Ionic positions in lattice coordinates:
ion Si   0.000000000000000   0.000000000000000   0.000000000000000 0
ion Si   0.250000000000000   0.250000000000000   0.250000000000000 0


# Forces in Lattice coordinates:
force Si  -0.000000000000000   0.000000000000000   0.000000000000000 0
force Si  -0.000000000000000  -0.000000000000000   0.000000000000000 0

# Energy components:
   Eewald =       -8.3994546412464199
       EH =        0.5577216712646434
     Eloc =       -2.1028168422346214
      Enl =        1.6299092160363404
      Exc =       -4.3107111312817370
 Exc_core =        1.6535544468665369
       KE =        3.0288076253897511
-------------------------------------
     Etot =       -7.9429896552055066

IonicMinimize: Iter:   0  Etot: -7.942989655205507  |grad|_K:  0.000e+00  t[s]:     12.82
IonicMinimize: Converged (|grad|_K<1.000000e-04).

#--- Lowdin population analysis ---
# oxidation-state Si +0.035 +0.035


Dumping 'Si.n' ... done
End date and time: Mon Mar  4 09:44:57 2019  (Duration: 0-0:00:12.89)
Done!
