CRYSTAL
PRIMVEC
  0.000000   2.715007   2.715007
  2.715007   0.000000   2.715007
  2.715007   2.715007   0.000000
PRIMCOORD
2 1
14   0.000000   0.000000   0.000000
14   1.357504   1.357504   1.357504
BEGIN_BLOCK_DATAGRID_3D
 n
 BEGIN_DATAGRID_3D_n
  37 37 37
    0.000000   0.000000   0.000000
    0.000000   2.715007   2.715007
    2.715007   0.000000   2.715007
    2.715007   2.715007   0.000000
  4.098422e-01 3.259703e-01 1.504025e-01 2.980818e-02 6.740120e-03 3.127529e-02 5.125021e-02 6.006050e-02 6.044733e-02 5.675338e-02 5.103205e-02 4.514000e-02 3.963901e-02 3.512504e-02 3.132710e-02 2.853228e-02 2.642403e-02 2.529615e-02 2.482167e-02 2.529615e-02 2.642403e-02 2.853228e-02 3.132710e-02 3.512504e-02 3.963901e-02 4.514000e-02 5.103205e-02 5.675338e-02 6.044733e-02 6.006050e-02 5.125021e-02 3.127529e-02 6.740120e-03 2.980818e-02 1.504025e-01 3.259703e-01 4.098422e-01
  3.259703e-01 1.962255e-01 5.900792e-02 6.170922e-03 2.220571e-02 4.773221e-02 6.150585e-02 6.561125e-02 6.342724e-02 5.857436e-02 5.251969e-02 4.678274e-02 4.164103e-02 3.742774e-02 3.398676e-02 3.144417e-02 2.972307e-02 2.888133e-02 2.888133e-02 2.972307e-02 3.144417e-02 3.398676e-02 3.742774e-02 4.164103e-02 4.678274e-02 5.251969e-02 5.857436e-02 6.342724e-02 6.561125e-02 6.150585e-02 4.773221e-02 2.220571e-02 6.170922e-03 5.900792e-02 1.962255e-01 3.259703e-01 3.259703e-01
  1.504025e-01 5.900792e-02 8.053525e-03 1.715211e-02 4.424080e-02 6.181526e-02 6.917302e-02 6.904701e-02 6.524537e-02 5.962694e-02 5.378903e-02 4.838725e-02 4.377772e-02 3.991426e-02 3.688518e-02 3.466353e-02 3.334492e-02 3.288628e-02 3.334492e-02 3.466353e-02 3.688518e-02 3.991426e-02 4.377772e-02 4.838725e-02 5.378903e-02 5.962694e-02 6.524537e-02 6.904701e-02 6.917302e-02 6.181526e-02 4.424080e-02 1.715211e-02 8.053525e-03 5.900792e-02 1.504025e-01 1.989394e-01 1.504025e-01
  2.980818e-02 6.170922e-03 1.715211e-02 4.287254e-02 6.162440e-02 7.122886e-02 7.303059e-02 7.056428e-02 6.571648e-02 6.018624e-02 5.480651e-02 5.006106e-02 4.594379e-02 4.255418e-02 3.989179e-02 3.807859e-02 3.715038e-02 3.715038e-02 3.807859e-02 3.989179e-02 4.255418e-02 4.594379e-02 5.006106e-02 5.480651e-02 6.018624e-02 6.571648e-02 7.056428e-02 7.303059e-02 7.122886e-02 6.162440e-02 4.287254e-02 1.715211e-02 6.170922e-03 2.980818e-02 6.245249e-02 6.245249e-02 2.980818e-02
  6.740120e-03 2.220571e-02 4.424080e-02 6.162440e-02 7.186623e-02 7.512160e-02 7.396974e-02 7.020806e-02 6.533771e-02 6.035350e-02 5.576561e-02 5.165967e-02 4.809901e-02 4.510862e-02 4.284854e-02 4.141535e-02 4.093828e-02 4.141535e-02 4.284854e-02 4.510862e-02 4.809901e-02 5.165967e-02 5.576561e-02 6.035350e-02 6.533771e-02 7.020806e-02 7.396974e-02 7.512160e-02 7.186623e-02 6.162440e-02 4.424080e-02 2.220571e-02 6.740120e-03 6.303000e-03 9.345494e-03 6.303000e-03 6.740120e-03
  3.127529e-02 4.773221e-02 6.181526e-02 7.122886e-02 7.512160e-02 7.514439e-02 7.258838e-02 6.869638e-02 6.444702e-02 6.035350e-02 5.656584e-02 5.309071e-02 4.996054e-02 4.733444e-02 4.541560e-02 4.439950e-02 4.439950e-02 4.541560e-02 4.733444e-02 4.996054e-02 5.309071e-02 5.656584e-02 6.035350e-02 6.444702e-02 6.869638e-02 7.258838e-02 7.514439e-02 7.512160e-02 7.122886e-02 6.181526e-02 4.773221e-02 3.127529e-02 1.751444e-02 1.076494e-02 1.076494e-02 1.751444e-02 3.127529e-02
  5.125021e-02 6.150585e-02 6.917302e-02 7.303059e-02 7.396974e-02 7.258838e-02 6.986672e-02 6.662284e-02 6.334211e-02 6.018624e-02 5.707479e-02 5.401917e-02 5.121193e-02 4.885743e-02 4.728650e-02 4.672638e-02 4.728650e-02 4.885743e-02 5.121193e-02 5.401917e-02 5.707479e-02 6.018624e-02 6.334211e-02 6.662284e-02 6.986672e-02 7.258838e-02 7.396974e-02 7.303059e-02 6.917302e-02 6.150585e-02 5.125021e-02 4.072755e-02 3.266098e-02 2.973399e-02 3.266098e-02 4.072755e-02 5.125021e-02
  6.006050e-02 6.561125e-02 6.904701e-02 7.056428e-02 7.020806e-02 6.869638e-02 6.662284e-02 6.437940e-02 6.210301e-02 5.962694e-02 5.698691e-02 5.421496e-02 5.156929e-02 4.944726e-02 4.826337e-02 4.826337e-02 4.944726e-02 5.156929e-02 5.421496e-02 5.698691e-02 5.962694e-02 6.210301e-02 6.437940e-02 6.662284e-02 6.869638e-02 7.020806e-02 7.056428e-02 6.904701e-02 6.561125e-02 6.006050e-02 5.323796e-02 4.717536e-02 4.352692e-02 4.352692e-02 4.717536e-02 5.323796e-02 6.006050e-02
  6.044733e-02 6.342724e-02 6.524537e-02 6.571648e-02 6.533771e-02 6.444702e-02 6.334211e-02 6.210301e-02 6.051026e-02 5.857436e-02 5.611141e-02 5.336313e-02 5.086600e-02 4.906483e-02 4.841880e-02 4.906483e-02 5.086600e-02 5.336313e-02 5.611141e-02 5.857436e-02 6.051026e-02 6.210301e-02 6.334211e-02 6.444702e-02 6.533771e-02 6.571648e-02 6.524537e-02 6.342724e-02 6.044733e-02 5.671028e-02 5.271019e-02 4.966800e-02 4.850956e-02 4.966800e-02 5.271019e-02 5.671028e-02 6.044733e-02
  5.675338e-02 5.857436e-02 5.962694e-02 6.018624e-02 6.035350e-02 6.035350e-02 6.018624e-02 5.962694e-02 5.857436e-02 5.675338e-02 5.423770e-02 5.162837e-02 4.935432e-02 4.804082e-02 4.804082e-02 4.935432e-02 5.162837e-02 5.423770e-02 5.675338e-02 5.857436e-02 5.962694e-02 6.018624e-02 6.035350e-02 6.035350e-02 6.018624e-02 5.962694e-02 5.857436e-02 5.675338e-02 5.423770e-02 5.162837e-02 4.935432e-02 4.804082e-02 4.804082e-02 4.935432e-02 5.162837e-02 5.423770e-02 5.675338e-02
  5.103205e-02 5.251969e-02 5.378903e-02 5.480651e-02 5.576561e-02 5.656584e-02 5.707479e-02 5.698691e-02 5.611141e-02 5.423770e-02 5.187563e-02 4.942920e-02 4.755789e-02 4.685552e-02 4.755789e-02 4.942920e-02 5.187563e-02 5.423770e-02 5.611141e-02 5.698691e-02 5.707479e-02 5.656584e-02 5.576561e-02 5.480651e-02 5.378903e-02 5.251969e-02 5.103205e-02 4.935037e-02 4.743108e-02 4.566685e-02 4.439940e-02 4.393211e-02 4.439940e-02 4.566685e-02 4.743108e-02 4.935037e-02 5.103205e-02
  4.514000e-02 4.678274e-02 4.838725e-02 5.006106e-02 5.165967e-02 5.309071e-02 5.401917e-02 5.421496e-02 5.336313e-02 5.162837e-02 4.942920e-02 4.734469e-02 4.605990e-02 4.605990e-02 4.734469e-02 4.942920e-02 5.162837e-02 5.336313e-02 5.421496e-02 5.401917e-02 5.309071e-02 5.165967e-02 5.006106e-02 4.838725e-02 4.678274e-02 4.514000e-02 4.340207e-02 4.178721e-02 4.031349e-02 3.917171e-02 3.854001e-02 3.854001e-02 3.917171e-02 4.031349e-02 4.178721e-02 4.340207e-02 4.514000e-02
  3.963901e-02 4.164103e-02 4.377772e-02 4.594379e-02 4.809901e-02 4.996054e-02 5.121193e-02 5.156929e-02 5.086600e-02 4.935432e-02 4.755789e-02 4.605990e-02 4.547795e-02 4.605990e-02 4.755789e-02 4.935432e-02 5.086600e-02 5.156929e-02 5.121193e-02 4.996054e-02 4.809901e-02 4.594379e-02 4.377772e-02 4.164103e-02 3.963901e-02 3.785865e-02 3.616997e-02 3.471327e-02 3.356178e-02 3.281405e-02 3.255711e-02 3.281405e-02 3.356178e-02 3.471327e-02 3.616997e-02 3.785865e-02 3.963901e-02
  3.512504e-02 3.742774e-02 3.991426e-02 4.255418e-02 4.510862e-02 4.733444e-02 4.885743e-02 4.944726e-02 4.906483e-02 4.804082e-02 4.685552e-02 4.605990e-02 4.605990e-02 4.685552e-02 4.804082e-02 4.906483e-02 4.944726e-02 4.885743e-02 4.733444e-02 4.510862e-02 4.255418e-02 3.991426e-02 3.742774e-02 3.512504e-02 3.296306e-02 3.112190e-02 2.956558e-02 2.833529e-02 2.747628e-02 2.702849e-02 2.702849e-02 2.747628e-02 2.833529e-02 2.956558e-02 3.112190e-02 3.296306e-02 3.512504e-02
  3.132710e-02 3.398676e-02 3.688518e-02 3.989179e-02 4.284854e-02 4.541560e-02 4.728650e-02 4.826337e-02 4.841880e-02 4.804082e-02 4.755789e-02 4.734469e-02 4.755789e-02 4.804082e-02 4.841880e-02 4.826337e-02 4.728650e-02 4.541560e-02 4.284854e-02 3.989179e-02 3.688518e-02 3.398676e-02 3.132710e-02 2.903262e-02 2.698600e-02 2.526526e-02 2.389802e-02 2.289561e-02 2.228668e-02 2.207906e-02 2.228668e-02 2.289561e-02 2.389802e-02 2.526526e-02 2.698600e-02 2.903262e-02 3.132710e-02
  2.853228e-02 3.144417e-02 3.466353e-02 3.807859e-02 4.141535e-02 4.439950e-02 4.672638e-02 4.826337e-02 4.906483e-02 4.935432e-02 4.942920e-02 4.942920e-02 4.935432e-02 4.906483e-02 4.826337e-02 4.672638e-02 4.439950e-02 4.141535e-02 3.807859e-02 3.466353e-02 3.144417e-02 2.853228e-02 2.588168e-02 2.364247e-02 2.177669e-02 2.027657e-02 1.915074e-02 1.839117e-02 1.800958e-02 1.800958e-02 1.839117e-02 1.915074e-02 2.027657e-02 2.177669e-02 2.364247e-02 2.588168e-02 2.853228e-02
  2.642403e-02 2.972307e-02 3.334492e-02 3.715038e-02 4.093828e-02 4.439950e-02 4.728650e-02 4.944726e-02 5.086600e-02 5.162837e-02 5.187563e-02 5.162837e-02 5.086600e-02 4.944726e-02 4.728650e-02 4.439950e-02 4.093828e-02 3.715038e-02 3.334492e-02 2.972307e-02 2.642403e-02 2.360526e-02 2.115639e-02 1.910479e-02 1.746186e-02 1.619661e-02 1.530611e-02 1.476969e-02 1.459263e-02 1.476969e-02 1.530611e-02 1.619661e-02 1.746186e-02 1.910479e-02 2.115639e-02 2.360526e-02 2.642403e-02
  2.529615e-02 2.888133e-02 3.288628e-02 3.715038e-02 4.141535e-02 4.541560e-02 4.885743e-02 5.156929e-02 5.336313e-02 5.423770e-02 5.423770e-02 5.336313e-02 5.156929e-02 4.885743e-02 4.541560e-02 4.141535e-02 3.715038e-02 3.288628e-02 2.888133e-02 2.529615e-02 2.208572e-02 1.938197e-02 1.715104e-02 1.534524e-02 1.395183e-02 1.292818e-02 1.225723e-02 1.192303e-02 1.192303e-02 1.225723e-02 1.292818e-02 1.395183e-02 1.534524e-02 1.715104e-02 1.938197e-02 2.208572e-02 2.529615e-02
  2.482167e-02 2.888133e-02 3.334492e-02 3.807859e-02 4.284854e-02 4.733444e-02 5.121193e-02 5.421496e-02 5.611141e-02 5.675338e-02 5.611141e-02 5.421496e-02 5.121193e-02 4.733444e-02 4.284854e-02 3.807859e-02 3.334492e-02 2.888133e-02 2.482167e-02 2.135314e-02 1.838244e-02 1.589988e-02 1.390987e-02 1.234912e-02 1.119072e-02 1.038427e-02 9.911237e-03 9.752616e-03 9.911237e-03 1.038427e-02 1.119072e-02 1.234912e-02 1.390987e-02 1.589988e-02 1.838244e-02 2.135314e-02 2.482167e-02
  2.529615e-02 2.972307e-02 3.466353e-02 3.989179e-02 4.510862e-02 4.996054e-02 5.401917e-02 5.698691e-02 5.857436e-02 5.857436e-02 5.698691e-02 5.401917e-02 4.996054e-02 4.510862e-02 3.989179e-02 3.466353e-02 2.972307e-02 2.529615e-02 2.135314e-02 1.802167e-02 1.528451e-02 1.306118e-02 1.132515e-02 1.000724e-02 9.064899e-03 8.454877e-03 8.155484e-03 8.155484e-03 8.454877e-03 9.064899e-03 1.000724e-02 1.132515e-02 1.306118e-02 1.528451e-02 1.802167e-02 2.135314e-02 2.529615e-02
  2.642403e-02 3.144417e-02 3.688518e-02 4.255418e-02 4.809901e-02 5.309071e-02 5.707479e-02 5.962694e-02 6.051026e-02 5.962694e-02 5.707479e-02 5.309071e-02 4.809901e-02 4.255418e-02 3.688518e-02 3.144417e-02 2.642403e-02 2.208572e-02 1.838244e-02 1.528451e-02 1.279777e-02 1.082935e-02 9.332418e-03 8.231840e-03 7.484263e-03 7.046407e-03 6.904592e-03 7.046407e-03 7.484263e-03 8.231840e-03 9.332418e-03 1.082935e-02 1.279777e-02 1.528451e-02 1.838244e-02 2.208572e-02 2.642403e-02
  2.853228e-02 3.398676e-02 3.991426e-02 4.594379e-02 5.165967e-02 5.656584e-02 6.018624e-02 6.210301e-02 6.210301e-02 6.018624e-02 5.656584e-02 5.165967e-02 4.594379e-02 3.991426e-02 3.398676e-02 2.853228e-02 2.360526e-02 1.938197e-02 1.589988e-02 1.306118e-02 1.082935e-02 9.107784e-03 7.829609e-03 6.925449e-03 6.349627e-03 6.068852e-03 6.068852e-03 6.349627e-03 6.925449e-03 7.829609e-03 9.107784e-03 1.082935e-02 1.306118e-02 1.589988e-02 1.938197e-02 2.360526e-02 2.853228e-02
  3.132710e-02 3.742774e-02 4.377772e-02 5.006106e-02 5.576561e-02 6.035350e-02 6.334211e-02 6.437940e-02 6.334211e-02 6.035350e-02 5.576561e-02 5.006106e-02 4.377772e-02 3.742774e-02 3.132710e-02 2.588168e-02 2.115639e-02 1.715104e-02 1.390987e-02 1.132515e-02 9.332418e-03 7.829609e-03 6.747203e-03 6.014816e-03 5.595334e-03 5.456208e-03 5.595334e-03 6.014816e-03 6.747203e-03 7.829609e-03 9.332418e-03 1.132515e-02 1.390987e-02 1.715104e-02 2.115639e-02 2.588168e-02 3.132710e-02
  3.512504e-02 4.164103e-02 4.838725e-02 5.480651e-02 6.035350e-02 6.444702e-02 6.662284e-02 6.662284e-02 6.444702e-02 6.035350e-02 5.480651e-02 4.838725e-02 4.164103e-02 3.512504e-02 2.903262e-02 2.364247e-02 1.910479e-02 1.534524e-02 1.234912e-02 1.000724e-02 8.231840e-03 6.925449e-03 6.014816e-03 5.438948e-03 5.160894e-03 5.160894e-03 5.438948e-03 6.014816e-03 6.925449e-03 8.231840e-03 1.000724e-02 1.234912e-02 1.534524e-02 1.910479e-02 2.364247e-02 2.903262e-02 3.512504e-02
  3.963901e-02 4.678274e-02 5.378903e-02 6.018624e-02 6.533771e-02 6.869638e-02 6.986672e-02 6.869638e-02 6.533771e-02 6.018624e-02 5.378903e-02 4.678274e-02 3.963901e-02 3.296306e-02 2.698600e-02 2.177669e-02 1.746186e-02 1.395183e-02 1.119072e-02 9.064899e-03 7.484263e-03 6.349627e-03 5.595334e-03 5.160894e-03 5.021845e-03 5.160894e-03 5.595334e-03 6.349627e-03 7.484263e-03 9.064899e-03 1.119072e-02 1.395183e-02 1.746186e-02 2.177669e-02 2.698600e-02 3.296306e-02 3.963901e-02
  4.514000e-02 5.251969e-02 5.962694e-02 6.571648e-02 7.020806e-02 7.258838e-02 7.258838e-02 7.020806e-02 6.571648e-02 5.962694e-02 5.251969e-02 4.514000e-02 3.785865e-02 3.112190e-02 2.526526e-02 2.027657e-02 1.619661e-02 1.292818e-02 1.038427e-02 8.454877e-03 7.046407e-03 6.068852e-03 5.456208e-03 5.160894e-03 5.160894e-03 5.456208e-03 6.068852e-03 7.046407e-03 8.454877e-03 1.038427e-02 1.292818e-02 1.619661e-02 2.027657e-02 2.526526e-02 3.112190e-02 3.785865e-02 4.514000e-02
  5.103205e-02 5.857436e-02 6.524537e-02 7.056428e-02 7.396974e-02 7.514439e-02 7.396974e-02 7.056428e-02 6.524537e-02 5.857436e-02 5.103205e-02 4.340207e-02 3.616997e-02 2.956558e-02 2.389802e-02 1.915074e-02 1.530611e-02 1.225723e-02 9.911237e-03 8.155484e-03 6.904592e-03 6.068852e-03 5.595334e-03 5.438948e-03 5.595334e-03 6.068852e-03 6.904592e-03 8.155484e-03 9.911237e-03 1.225723e-02 1.530611e-02 1.915074e-02 2.389802e-02 2.956558e-02 3.616997e-02 4.340207e-02 5.103205e-02
  5.675338e-02 6.342724e-02 6.904701e-02 7.303059e-02 7.512160e-02 7.512160e-02 7.303059e-02 6.904701e-02 6.342724e-02 5.675338e-02 4.935037e-02 4.178721e-02 3.471327e-02 2.833529e-02 2.289561e-02 1.839117e-02 1.476969e-02 1.192303e-02 9.752616e-03 8.155484e-03 7.046407e-03 6.349627e-03 6.014816e-03 6.014816e-03 6.349627e-03 7.046407e-03 8.155484e-03 9.752616e-03 1.192303e-02 1.476969e-02 1.839117e-02 2.289561e-02 2.833529e-02 3.471327e-02 4.178721e-02 4.935037e-02 5.675338e-02
  6.044733e-02 6.561125e-02 6.917302e-02 7.122886e-02 7.186623e-02 7.122886e-02 6.917302e-02 6.561125e-02 6.044733e-02 5.423770e-02 4.743108e-02 4.031349e-02 3.356178e-02 2.747628e-02 2.228668e-02 1.800958e-02 1.459263e-02 1.192303e-02 9.911237e-03 8.454877e-03 7.484263e-03 6.925449e-03 6.747203e-03 6.925449e-03 7.484263e-03 8.454877e-03 9.911237e-03 1.192303e-02 1.459263e-02 1.800958e-02 2.228668e-02 2.747628e-02 3.356178e-02 4.031349e-02 4.743108e-02 5.423770e-02 6.044733e-02
  6.006050e-02 6.150585e-02 6.181526e-02 6.162440e-02 6.162440e-02 6.181526e-02 6.150585e-02 6.006050e-02 5.671028e-02 5.162837e-02 4.566685e-02 3.917171e-02 3.281405e-02 2.702849e-02 2.207906e-02 1.800958e-02 1.476969e-02 1.225723e-02 1.038427e-02 9.064899e-03 8.231840e-03 7.829609e-03 7.829609e-03 8.231840e-03 9.064899e-03 1.038427e-02 1.225723e-02 1.476969e-02 1.800958e-02 2.207906e-02 2.702849e-02 3.281405e-02 3.917171e-02 4.566685e-02 5.162837e-02 5.671028e-02 6.006050e-02
  5.125021e-02 4.773221e-02 4.424080e-02 4.287254e-02 4.424080e-02 4.773221e-02 5.125021e-02 5.323796e-02 5.271019e-02 4.935432e-02 4.439940e-02 3.854001e-02 3.255711e-02 2.702849e-02 2.228668e-02 1.839117e-02 1.530611e-02 1.292818e-02 1.119072e-02 1.000724e-02 9.332418e-03 9.107784e-03 9.332418e-03 1.000724e-02 1.119072e-02 1.292818e-02 1.530611e-02 1.839117e-02 2.228668e-02 2.702849e-02 3.255711e-02 3.854001e-02 4.439940e-02 4.935432e-02 5.271019e-02 5.323796e-02 5.125021e-02
  3.127529e-02 2.220571e-02 1.715211e-02 1.715211e-02 2.220571e-02 3.127529e-02 4.072755e-02 4.717536e-02 4.966800e-02 4.804082e-02 4.393211e-02 3.854001e-02 3.281405e-02 2.747628e-02 2.289561e-02 1.915074e-02 1.619661e-02 1.395183e-02 1.234912e-02 1.132515e-02 1.082935e-02 1.082935e-02 1.132515e-02 1.234912e-02 1.395183e-02 1.619661e-02 1.915074e-02 2.289561e-02 2.747628e-02 3.281405e-02 3.854001e-02 4.393211e-02 4.804082e-02 4.966800e-02 4.717536e-02 4.072755e-02 3.127529e-02
  6.740120e-03 6.170922e-03 8.053525e-03 6.170922e-03 6.740120e-03 1.751444e-02 3.266098e-02 4.352692e-02 4.850956e-02 4.804082e-02 4.439940e-02 3.917171e-02 3.356178e-02 2.833529e-02 2.389802e-02 2.027657e-02 1.746186e-02 1.534524e-02 1.390987e-02 1.306118e-02 1.279777e-02 1.306118e-02 1.390987e-02 1.534524e-02 1.746186e-02 2.027657e-02 2.389802e-02 2.833529e-02 3.356178e-02 3.917171e-02 4.439940e-02 4.804082e-02 4.850956e-02 4.352692e-02 3.266098e-02 1.751444e-02 6.740120e-03
  2.980818e-02 5.900792e-02 5.900792e-02 2.980818e-02 6.303000e-03 1.076494e-02 2.973399e-02 4.352692e-02 4.966800e-02 4.935432e-02 4.566685e-02 4.031349e-02 3.471327e-02 2.956558e-02 2.526526e-02 2.177669e-02 1.910479e-02 1.715104e-02 1.589988e-02 1.528451e-02 1.528451e-02 1.589988e-02 1.715104e-02 1.910479e-02 2.177669e-02 2.526526e-02 2.956558e-02 3.471327e-02 4.031349e-02 4.566685e-02 4.935432e-02 4.966800e-02 4.352692e-02 2.973399e-02 1.076494e-02 6.303000e-03 2.980818e-02
  1.504025e-01 1.962255e-01 1.504025e-01 6.245249e-02 9.345494e-03 1.076494e-02 3.266098e-02 4.717536e-02 5.271019e-02 5.162837e-02 4.743108e-02 4.178721e-02 3.616997e-02 3.112190e-02 2.698600e-02 2.364247e-02 2.115639e-02 1.938197e-02 1.838244e-02 1.802167e-02 1.838244e-02 1.938197e-02 2.115639e-02 2.364247e-02 2.698600e-02 3.112190e-02 3.616997e-02 4.178721e-02 4.743108e-02 5.162837e-02 5.271019e-02 4.717536e-02 3.266098e-02 1.076494e-02 9.345494e-03 6.245249e-02 1.504025e-01
  3.259703e-01 3.259703e-01 1.989394e-01 6.245249e-02 6.303000e-03 1.751444e-02 4.072755e-02 5.323796e-02 5.671028e-02 5.423770e-02 4.935037e-02 4.340207e-02 3.785865e-02 3.296306e-02 2.903262e-02 2.588168e-02 2.360526e-02 2.208572e-02 2.135314e-02 2.135314e-02 2.208572e-02 2.360526e-02 2.588168e-02 2.903262e-02 3.296306e-02 3.785865e-02 4.340207e-02 4.935037e-02 5.423770e-02 5.671028e-02 5.323796e-02 4.072755e-02 1.751444e-02 6.303000e-03 6.245249e-02 1.989394e-01 3.259703e-01
  4.098422e-01 3.259703e-01 1.504025e-01 2.980818e-02 6.740120e-03 3.127529e-02 5.125021e-02 6.006050e-02 6.044733e-02 5.675338e-02 5.103205e-02 4.514000e-02 3.963901e-02 3.512504e-02 3.132710e-02 2.853228e-02 2.642403e-02 2.529615e-02 2.482167e-02 2.529615e-02 2.642403e-02 2.853228e-02 3.132710e-02 3.512504e-02 3.963901e-02 4.514000e-02 5.103205e-02 5.675338e-02 6.044733e-02 6.006050e-02 5.125021e-02 3.127529e-02 6.740120e-03 2.980818e-02 1.504025e-01 3.259703e-01 4.098422e-01
  3.259703e-01 1.962255e-01 5.900792e-02 6.170922e-03 2.220571e-02 4.773221e-02 6.150585e-02 6.561125e-02 6.342724e-02 5.857436e-02 5.251969e-02 4.678274e-02 4.164103e-02 3.742774e-02 3.398676e-02 3.144417e-02 2.972307e-02 2.888133e-02 2.888133e-02 2.972307e-02 3.144417e-02 3.398676e-02 3.742774e-02 4.164103e-02 4.678274e-02 5.251969e-02 5.857436e-02 6.342724e-02 6.561125e-02 6.150585e-02 4.773221e-02 2.220571e-02 6.170922e-03 5.900792e-02 1.962255e-01 3.259703e-01 3.259703e-01
  1.962255e-01 8.109067e-02 1.200858e-02 1.455343e-02 4.260944e-02 6.151558e-02 6.967648e-02 6.986267e-02 6.616669e-02 6.051026e-02 5.461168e-02 4.911248e-02 4.444704e-02 4.050493e-02 3.744234e-02 3.516552e-02 3.384009e-02 3.335628e-02 3.384009e-02 3.516552e-02 3.744234e-02 4.050493e-02 4.444704e-02 4.911248e-02 5.461168e-02 6.051026e-02 6.616669e-02 6.986267e-02 6.967648e-02 6.151558e-02 4.260944e-02 1.455343e-02 1.200858e-02 8.109067e-02 1.962255e-01 2.553559e-01 1.962255e-01
  5.900792e-02 1.200858e-02 1.205964e-02 3.927867e-02 6.079362e-02 7.216938e-02 7.480255e-02 7.260694e-02 6.775777e-02 6.210301e-02 5.654636e-02 5.164588e-02 4.738396e-02 4.387604e-02 4.111142e-02 3.922785e-02 3.826100e-02 3.826100e-02 3.922785e-02 4.111142e-02 4.387604e-02 4.738396e-02 5.164588e-02 5.654636e-02 6.210301e-02 6.775777e-02 7.260694e-02 7.480255e-02 7.216938e-02 6.079362e-02 3.927867e-02 1.205964e-02 1.200858e-02 5.900792e-02 1.130349e-01 1.130349e-01 5.900792e-02
  6.170922e-03 1.455343e-02 3.927867e-02 6.042008e-02 7.327111e-02 7.792178e-02 7.727198e-02 7.358989e-02 6.857704e-02 6.334211e-02 5.851578e-02 5.417528e-02 5.042230e-02 4.723419e-02 4.483344e-02 4.328753e-02 4.278706e-02 4.328753e-02 4.483344e-02 4.723419e-02 5.042230e-02 5.417528e-02 5.851578e-02 6.334211e-02 6.857704e-02 7.358989e-02 7.727198e-02 7.792178e-02 7.327111e-02 6.042008e-02 3.927867e-02 1.455343e-02 6.170922e-03 1.993438e-02 3.019488e-02 1.993438e-02 6.170922e-03
  2.220571e-02 4.260944e-02 6.079362e-02 7.327111e-02 7.898636e-02 7.972206e-02 7.737806e-02 7.335768e-02 6.884139e-02 6.444702e-02 6.036409e-02 5.659063e-02 5.317104e-02 5.027566e-02 4.814600e-02 4.701351e-02 4.701351e-02 4.814600e-02 5.027566e-02 5.317104e-02 5.659063e-02 6.036409e-02 6.444702e-02 6.884139e-02 7.335768e-02 7.737806e-02 7.972206e-02 7.898636e-02 7.327111e-02 6.079362e-02 4.260944e-02 2.220571e-02 8.420096e-03 4.542971e-03 4.542971e-03 8.420096e-03 2.220571e-02
  4.773221e-02 6.151558e-02 7.216938e-02 7.792178e-02 7.972206e-02 7.868693e-02 7.590939e-02 7.242220e-02 6.884139e-02 6.533771e-02 6.187029e-02 5.842567e-02 5.518509e-02 5.244740e-02 5.060802e-02 4.995111e-02 5.060802e-02 5.244740e-02 5.518509e-02 5.842567e-02 6.187029e-02 6.533771e-02 6.884139e-02 7.242220e-02 7.590939e-02 7.868693e-02 7.972206e-02 7.792178e-02 7.216938e-02 6.151558e-02 4.773221e-02 3.350970e-02 2.313053e-02 1.947795e-02 2.313053e-02 3.350970e-02 4.773221e-02
  6.150585e-02 6.967648e-02 7.480255e-02 7.727198e-02 7.737806e-02 7.590939e-02 7.366855e-02 7.117810e-02 6.857704e-02 6.571648e-02 6.257526e-02 5.921587e-02 5.594738e-02 5.333652e-02 5.187513e-02 5.187513e-02 5.333652e-02 5.594738e-02 5.921587e-02 6.257526e-02 6.571648e-02 6.857704e-02 7.117810e-02 7.366855e-02 7.590939e-02 7.737806e-02 7.727198e-02 7.480255e-02 6.967648e-02 6.150585e-02 5.204044e-02 4.358371e-02 3.853330e-02 3.853330e-02 4.358371e-02 5.204044e-02 6.150585e-02
  6.561125e-02 6.986267e-02 7.260694e-02 7.358989e-02 7.335768e-02 7.242220e-02 7.117810e-02 6.969923e-02 6.775777e-02 6.524537e-02 6.201859e-02 5.844906e-02 5.514259e-02 5.278006e-02 5.192174e-02 5.278006e-02 5.514259e-02 5.844906e-02 6.201859e-02 6.524537e-02 6.775777e-02 6.969923e-02 7.117810e-02 7.242220e-02 7.335768e-02 7.358989e-02 7.260694e-02 6.986267e-02 6.561125e-02 5.997716e-02 5.408153e-02 4.965428e-02 4.799197e-02 4.965428e-02 5.408153e-02 5.997716e-02 6.561125e-02
  6.342724e-02 6.616669e-02 6.775777e-02 6.857704e-02 6.884139e-02 6.884139e-02 6.857704e-02 6.775777e-02 6.616669e-02 6.342724e-02 5.994917e-02 5.621815e-02 5.292594e-02 5.098695e-02 5.098695e-02 5.292594e-02 5.621815e-02 5.994917e-02 6.342724e-02 6.616669e-02 6.775777e-02 6.857704e-02 6.884139e-02 6.884139e-02 6.857704e-02 6.775777e-02 6.616669e-02 6.342724e-02 5.994917e-02 5.621815e-02 5.292594e-02 5.098695e-02 5.098695e-02 5.292594e-02 5.621815e-02 5.994917e-02 6.342724e-02
  5.857436e-02 6.051026e-02 6.210301e-02 6.334211e-02 6.444702e-02 6.533771e-02 6.571648e-02 6.524537e-02 6.342724e-02 6.044733e-02 5.671028e-02 5.271019e-02 4.966800e-02 4.850956e-02 4.966800e-02 5.271019e-02 5.671028e-02 6.044733e-02 6.342724e-02 6.524537e-02 6.571648e-02 6.533771e-02 6.444702e-02 6.334211e-02 6.210301e-02 6.051026e-02 5.857436e-02 5.611141e-02 5.336313e-02 5.086600e-02 4.906483e-02 4.841880e-02 4.906483e-02 5.086600e-02 5.336313e-02 5.611141e-02 5.857436e-02
  5.251969e-02 5.461168e-02 5.654636e-02 5.851578e-02 6.036409e-02 6.187029e-02 6.257526e-02 6.201859e-02 5.994917e-02 5.671028e-02 5.256681e-02 4.870112e-02 4.636987e-02 4.636987e-02 4.870112e-02 5.256681e-02 5.671028e-02 5.994917e-02 6.201859e-02 6.257526e-02 6.187029e-02 6.036409e-02 5.851578e-02 5.654636e-02 5.461168e-02 5.251969e-02 5.038539e-02 4.824852e-02 4.621326e-02 4.461353e-02 4.372225e-02 4.372225e-02 4.461353e-02 4.621326e-02 4.824852e-02 5.038539e-02 5.251969e-02
  4.678274e-02 4.911248e-02 5.164588e-02 5.417528e-02 5.659063e-02 5.842567e-02 5.921587e-02 5.844906e-02 5.621815e-02 5.271019e-02 4.870112e-02 4.553105e-02 4.432934e-02 4.553105e-02 4.870112e-02 5.271019e-02 5.621815e-02 5.844906e-02 5.921587e-02 5.842567e-02 5.659063e-02 5.417528e-02 5.164588e-02 4.911248e-02 4.678274e-02 4.452838e-02 4.239195e-02 4.052754e-02 3.901990e-02 3.803066e-02 3.768268e-02 3.803066e-02 3.901990e-02 4.052754e-02 4.239195e-02 4.452838e-02 4.678274e-02
  4.164103e-02 4.444704e-02 4.738396e-02 5.042230e-02 5.317104e-02 5.518509e-02 5.594738e-02 5.514259e-02 5.292594e-02 4.966800e-02 4.636987e-02 4.432934e-02 4.432934e-02 4.636987e-02 4.966800e-02 5.292594e-02 5.514259e-02 5.594738e-02 5.518509e-02 5.317104e-02 5.042230e-02 4.738396e-02 4.444704e-02 4.164103e-02 3.911242e-02 3.689658e-02 3.495640e-02 3.340742e-02 3.230906e-02 3.173975e-02 3.173975e-02 3.230906e-02 3.340742e-02 3.495640e-02 3.689658e-02 3.911242e-02 4.164103e-02
  3.742774e-02 4.050493e-02 4.387604e-02 4.723419e-02 5.027566e-02 5.244740e-02 5.333652e-02 5.278006e-02 5.098695e-02 4.850956e-02 4.636987e-02 4.553105e-02 4.636987e-02 4.850956e-02 5.098695e-02 5.278006e-02 5.333652e-02 5.244740e-02 5.027566e-02 4.723419e-02 4.387604e-02 4.050493e-02 3.742774e-02 3.463912e-02 3.215210e-02 3.007549e-02 2.839437e-02 2.716268e-02 2.640266e-02 2.614878e-02 2.640266e-02 2.716268e-02 2.839437e-02 3.007549e-02 3.215210e-02 3.463912e-02 3.742774e-02
  3.398676e-02 3.744234e-02 4.111142e-02 4.483344e-02 4.814600e-02 5.060802e-02 5.187513e-02 5.192174e-02 5.098695e-02 4.966800e-02 4.870112e-02 4.870112e-02 4.966800e-02 5.098695e-02 5.192174e-02 5.187513e-02 5.060802e-02 4.814600e-02 4.483344e-02 4.111142e-02 3.744234e-02 3.398676e-02 3.091319e-02 2.828348e-02 2.603019e-02 2.421586e-02 2.283669e-02 2.191153e-02 2.144448e-02 2.144448e-02 2.191153e-02 2.283669e-02 2.421586e-02 2.603019e-02 2.828348e-02 3.091319e-02 3.398676e-02
  3.144417e-02 3.516552e-02 3.922785e-02 4.328753e-02 4.701351e-02 4.995111e-02 5.187513e-02 5.278006e-02 5.292594e-02 5.271019e-02 5.256681e-02 5.271019e-02 5.292594e-02 5.278006e-02 5.187513e-02 4.995111e-02 4.701351e-02 4.328753e-02 3.922785e-02 3.516552e-02 3.144417e-02 2.813593e-02 2.523594e-02 2.282803e-02 2.086159e-02 1.934882e-02 1.827080e-02 1.762855e-02 1.741245e-02 1.762855e-02 1.827080e-02 1.934882e-02 2.086159e-02 2.282803e-02 2.523594e-02 2.813593e-02 3.144417e-02
  2.972307e-02 3.384009e-02 3.826100e-02 4.278706e-02 4.701351e-02 5.060802e-02 5.333652e-02 5.514259e-02 5.621815e-02 5.671028e-02 5.671028e-02 5.621815e-02 5.514259e-02 5.333652e-02 5.060802e-02 4.701351e-02 4.278706e-02 3.826100e-02 3.384009e-02 2.972307e-02 2.607985e-02 2.299923e-02 2.039122e-02 1.828102e-02 1.662818e-02 1.541587e-02 1.461719e-02 1.422117e-02 1.422117e-02 1.461719e-02 1.541587e-02 1.662818e-02 1.828102e-02 2.039122e-02 2.299923e-02 2.607985e-02 2.972307e-02
  2.888133e-02 3.335628e-02 3.826100e-02 4.328753e-02 4.814600e-02 5.244740e-02 5.594738e-02 5.844906e-02 5.994917e-02 6.044733e-02 5.994917e-02 5.844906e-02 5.594738e-02 5.244740e-02 4.814600e-02 4.328753e-02 3.826100e-02 3.335628e-02 2.888133e-02 2.494633e-02 2.153184e-02 1.871160e-02 1.641073e-02 1.460875e-02 1.325472e-02 1.231716e-02 1.176188e-02 1.158003e-02 1.176188e-02 1.231716e-02 1.325472e-02 1.460875e-02 1.641073e-02 1.871160e-02 2.153184e-02 2.494633e-02 2.888133e-02
  2.888133e-02 3.384009e-02 3.922785e-02 4.483344e-02 5.027566e-02 5.518509e-02 5.921587e-02 6.201859e-02 6.342724e-02 6.342724e-02 6.201859e-02 5.921587e-02 5.518509e-02 5.027566e-02 4.483344e-02 3.922785e-02 3.384009e-02 2.888133e-02 2.450134e-02 2.081289e-02 1.771420e-02 1.520617e-02 1.322279e-02 1.171809e-02 1.063604e-02 9.937195e-03 9.593204e-03 9.593204e-03 9.937195e-03 1.063604e-02 1.171809e-02 1.322279e-02 1.520617e-02 1.771420e-02 2.081289e-02 2.450134e-02 2.888133e-02
  2.972307e-02 3.516552e-02 4.111142e-02 4.723419e-02 5.317104e-02 5.842567e-02 6.257526e-02 6.524537e-02 6.616669e-02 6.524537e-02 6.257526e-02 5.842567e-02 5.317104e-02 4.723419e-02 4.111142e-02 3.516552e-02 2.972307e-02 2.494633e-02 2.081289e-02 1.739946e-02 1.461828e-02 1.242290e-02 1.073779e-02 9.503344e-03 8.658336e-03 8.167964e-03 8.005028e-03 8.167964e-03 8.658336e-03 9.503344e-03 1.073779e-02 1.242290e-02 1.461828e-02 1.739946e-02 2.081289e-02 2.494633e-02 2.972307e-02
  3.144417e-02 3.744234e-02 4.387604e-02 5.042230e-02 5.659063e-02 6.187029e-02 6.571648e-02 6.775777e-02 6.775777e-02 6.571648e-02 6.187029e-02 5.659063e-02 5.042230e-02 4.387604e-02 3.744234e-02 3.144417e-02 2.607985e-02 2.153184e-02 1.771420e-02 1.461828e-02 1.215920e-02 1.026369e-02 8.850371e-03 7.852234e-03 7.214352e-03 6.903720e-03 6.903720e-03 7.214352e-03 7.852234e-03 8.850371e-03 1.026369e-02 1.215920e-02 1.461828e-02 1.771420e-02 2.153184e-02 2.607985e-02 3.144417e-02
  3.398676e-02 4.050493e-02 4.738396e-02 5.417528e-02 6.036409e-02 6.533771e-02 6.857704e-02 6.969923e-02 6.857704e-02 6.533771e-02 6.036409e-02 5.417528e-02 4.738396e-02 4.050493e-02 3.398676e-02 2.813593e-02 2.299923e-02 1.871160e-02 1.520617e-02 1.242290e-02 1.026369e-02 8.639936e-03 7.463621e-03 6.672071e-03 6.213203e-03 6.064793e-03 6.213203e-03 6.672071e-03 7.463621e-03 8.639936e-03 1.026369e-02 1.242290e-02 1.520617e-02 1.871160e-02 2.299923e-02 2.813593e-02 3.398676e-02
  3.742774e-02 4.444704e-02 5.164588e-02 5.851578e-02 6.444702e-02 6.884139e-02 7.117810e-02 7.117810e-02 6.884139e-02 6.444702e-02 5.851578e-02 5.164588e-02 4.444704e-02 3.742774e-02 3.091319e-02 2.523594e-02 2.039122e-02 1.641073e-02 1.322279e-02 1.073779e-02 8.850371e-03 7.463621e-03 6.494029e-03 5.881072e-03 5.584035e-03 5.584035e-03 5.881072e-03 6.494029e-03 7.463621e-03 8.850371e-03 1.073779e-02 1.322279e-02 1.641073e-02 2.039122e-02 2.523594e-02 3.091319e-02 3.742774e-02
  4.164103e-02 4.911248e-02 5.654636e-02 6.334211e-02 6.884139e-02 7.242220e-02 7.366855e-02 7.242220e-02 6.884139e-02 6.334211e-02 5.654636e-02 4.911248e-02 4.164103e-02 3.463912e-02 2.828348e-02 2.282803e-02 1.828102e-02 1.460875e-02 1.171809e-02 9.503344e-03 7.852234e-03 6.672071e-03 5.881072e-03 5.429568e-03 5.280879e-03 5.429568e-03 5.881072e-03 6.672071e-03 7.852234e-03 9.503344e-03 1.171809e-02 1.460875e-02 1.828102e-02 2.282803e-02 2.828348e-02 3.463912e-02 4.164103e-02