
*************** JDFTx 1.4.2  ***************

Start date and time: Tue Mar 19 06:10:50 2019
Executable jdftx with command-line: -i Charged.in
Running on hosts (process indices):  Juans-MBP.lan1 (0-3)
Divided in process groups (process indices):  0 (0)  1 (1)  2 (2)  3 (3)
Resource initialization completed at t[s]:      0.00
Run totals: 4 processes, 12 threads, 0 GPUs


Input parsed successfully to the following command list (including defaults):

basis kpoint-dependent
coords-type Lattice
core-overlap-check vector
coulomb-interaction Slab 001
coulomb-truncation-embed 0 0 0
davidson-band-ratio 1.1
dump End State BoundCharge
dump-name common.$VAR
elec-cutoff 20 100
elec-eigen-algo Davidson
elec-ex-corr gga-PBEsol
elec-smearing Fermi 0.01
electronic-minimize  \
	dirUpdateScheme      FletcherReeves \
	linminMethod         DirUpdateRecommended \
	nIterations          200 \
	history              15 \
	knormThreshold       0 \
	energyDiffThreshold  1e-08 \
	nEnergyDiff          2 \
	alphaTstart          1 \
	alphaTmin            1e-10 \
	updateTestStepSize   yes \
	alphaTreduceFactor   0.1 \
	alphaTincreaseFactor 3 \
	nAlphaAdjustMax      3 \
	wolfeEnergy          0.0001 \
	wolfeGradient        0.9 \
	fdTest               no
exchange-regularization WignerSeitzTruncated
fluid LinearPCM 298.000000 1.013250
fluid-anion F- 1 MeanFieldLJ \
	epsBulk 1 \
	pMol 0 \
	epsInf 1 \
	Pvap 0 \
	sigmaBulk 0 \
	Rvdw 2.24877 \
	Res 0
fluid-cation Na+ 1 MeanFieldLJ \
	epsBulk 1 \
	pMol 0 \
	epsInf 1 \
	Pvap 0 \
	sigmaBulk 0 \
	Rvdw 2.19208 \
	Res 0
fluid-ex-corr lda-TF lda-PZ
fluid-gummel-loop 10 1.000000e-05
fluid-minimize  \
	dirUpdateScheme      PolakRibiere \
	linminMethod         DirUpdateRecommended \
	nIterations          400 \
	history              15 \
	knormThreshold       1e-11 \
	energyDiffThreshold  0 \
	nEnergyDiff          2 \
	alphaTstart          1 \
	alphaTmin            1e-10 \
	updateTestStepSize   yes \
	alphaTreduceFactor   0.1 \
	alphaTincreaseFactor 3 \
	nAlphaAdjustMax      6 \
	wolfeEnergy          0.0001 \
	wolfeGradient        0.9 \
	fdTest               no
fluid-solvent H2O 55.338 ScalarEOS \
	epsBulk 78.4 \
	pMol 0.92466 \
	epsInf 1.77 \
	Pvap 1.06736e-10 \
	sigmaBulk 4.62e-05 \
	Rvdw 2.61727 \
	Res 1.42
forces-output-coords Positions
initial-state common.$VAR
ion Pt   0.333333000000000  -0.333333000000000  -0.237676000000000 1
ion Pt  -0.333333000000000   0.333333000000000  -0.118838000000000 1
ion Pt   0.000000000000000   0.000000000000000   0.000000000000000 1
ion Pt   0.333333000000000  -0.333333000000000   0.118838000000000 1
ion Pt  -0.333333000000000   0.333333000000000   0.237676000000000 1
ion-species GBRV/$ID_pbesol.uspp
ion-width Ecut
ionic-minimize  \
	dirUpdateScheme      L-BFGS \
	linminMethod         DirUpdateRecommended \
	nIterations          0 \
	history              15 \
	knormThreshold       0.0001 \
	energyDiffThreshold  1e-06 \
	nEnergyDiff          2 \
	alphaTstart          1 \
	alphaTmin            1e-10 \
	updateTestStepSize   yes \
	alphaTreduceFactor   0.1 \
	alphaTincreaseFactor 3 \
	nAlphaAdjustMax      3 \
	wolfeEnergy          0.0001 \
	wolfeGradient        0.9 \
	fdTest               no
kpoint   0.000000000000   0.000000000000   0.000000000000  1.00000000000000
kpoint-folding 12 12 1 
latt-move-scale 1 1 1
latt-scale 1 1 1 
lattice Hexagonal 5.23966 36
lattice-minimize  \
	dirUpdateScheme      L-BFGS \
	linminMethod         DirUpdateRecommended \
	nIterations          0 \
	history              15 \
	knormThreshold       0 \
	energyDiffThreshold  1e-06 \
	nEnergyDiff          2 \
	alphaTstart          1 \
	alphaTmin            1e-10 \
	updateTestStepSize   yes \
	alphaTreduceFactor   0.1 \
	alphaTincreaseFactor 3 \
	nAlphaAdjustMax      3 \
	wolfeEnergy          0.0001 \
	wolfeGradient        0.9 \
	fdTest               no
lcao-params -1 1e-06 0.01
pcm-variant CANDLE
spintype no-spin
subspace-rotation-factor 1 yes
symmetries automatic
symmetry-threshold 0.0001
target-mu -0.2346 no




---------- Setting up symmetries ----------

Found 24 point-group symmetries of the bravais lattice
Found 12 space-group symmetries with basis
Applied RMS atom displacement 2.70575e-06 bohrs to make symmetries exact.

---------- Initializing the Grid ----------
R = 
[    5.23966   -2.61983          0  ]
[          0    4.53768          0  ]
[          0          0         36  ]
unit cell volume = 855.932
G =
[    1.19916   0.692335         -0  ]
[          0    1.38467          0  ]
[          0         -0   0.174533  ]
Minimum fftbox size, Smin = [  24  24  164  ]
Chosen fftbox size, S = [  24  24  168  ]

---------- Initializing tighter grid for wavefunction operations ----------
R = 
[    5.23966   -2.61983          0  ]
[          0    4.53768          0  ]
[          0          0         36  ]
unit cell volume = 855.932
G =
[    1.19916   0.692335         -0  ]
[          0    1.38467          0  ]
[          0         -0   0.174533  ]
Minimum fftbox size, Smin = [  24  24  148  ]
Chosen fftbox size, S = [  24  24  150  ]

---------- Exchange Correlation functional ----------
Initalized PBEsol GGA exchange.
Initalized PBEsol GGA correlation.

---------- Setting up pseudopotentials ----------
Width of ionic core gaussian charges (only for fluid interactions / plotting) set to 0.397384

Reading pseudopotential file '/Users/juanmendezvalderrama/Documents/JDFTX/build/pseudopotentials/GBRV/pt_pbesol.uspp':
  Title: Pt.  Created by USPP 7.3.6 on 22-9-15
  Reference state energy: -104.899005.  16 valence electrons in orbitals:
    |510>  occupation: 6  eigenvalue: -2.158847
    |520>  occupation: 9.5  eigenvalue: -0.336311
    |600>  occupation: 0  eigenvalue: -0.320324
    |610>  occupation: 0  eigenvalue: -0.119800
  lMax: 2  lLocal: 3  QijEcut: 5.5
  6 projectors sampled on a log grid with 745 points:
    l: 0  eig: -0.320324  rCut: 2.45
    l: 0  eig: 1.500000  rCut: 2.45
    l: 1  eig: -2.158847  rCut: 1.6
    l: 1  eig: -0.119800  rCut: 1.6
    l: 2  eig: -0.500000  rCut: 1.6
    l: 2  eig: -0.336311  rCut: 1.6
  Partial core density with radius 1.1
  Transforming core density to a uniform radial grid of dG=0.02 with 1620 points.
  Transforming local potential to a uniform radial grid of dG=0.02 with 1620 points.
  Transforming nonlocal projectors to a uniform radial grid of dG=0.02 with 432 points.
  Transforming density augmentations to a uniform radial grid of dG=0.02 with 1620 points.
  Transforming atomic orbitals to a uniform radial grid of dG=0.02 with 432 points.
  Core radius for overlap checks: 2.45 bohrs.

Initialized 1 species with 5 total atoms.

Folded 1 k-points by 12x12x1 to 144 k-points.

---------- Setting up k-points, bands, fillings ----------
Reduced to 19 k-points under symmetry. 
Computing the number of bands and number of electrons
Reading initial fillings from file common.fillings.
nElectrons:  79.899251   nBands: 60   nStates: 19

----- Setting up reduced wavefunction bases (one per k-point) -----
average nbasis = 3657.132 , ideal nbasis = 3656.607

---------- Setting up coulomb interaction ----------
Fluid mode embedding: using embedded box, but periodic Coulomb kernel.
(Fluid response is responsible for (approximate) separation between periodic images.)
Setting up double-sized grid for truncated Coulomb potentials:
R = 
[    5.23966   -2.61983          0  ]
[          0    4.53768          0  ]
[          0          0         72  ]
unit cell volume = 1711.86
G =
[    1.19916   0.692335         -0  ]
[          0    1.38467          0  ]
[          0         -0  0.0872665  ]
Chosen fftbox size, S = [  24  24  336  ]
Integer grid location selected as the embedding center:
   Grid: [  0  0  0  ]
   Lattice: [  0  0  0  ]
   Cartesian: [  0  0  0  ]
Constructing Wigner-Seitz cell: 8 faces (6 quadrilaterals, 2 hexagons)
Range-separation parameter for embedded mesh potentials due to point charges: 0.589462 bohrs.

Initializing van der Waals corrections
	NOTE: vdW corrections apply only for interactions with fluid.
	Pt:  C6:  815.23 Eh-a0^6  R0: 3.326 a0 (WARNING: beyond Grimme's data set)

---------- Setting up ewald sum ----------
Optimum gaussian width for ewald sums = 3.649540 bohr.
Real space sum over 1805 unit cells with max indices [  9  9  2  ]
Reciprocal space sum over 5103 terms with max indices [  4  4  31  ]

---------- Allocating electronic variables ----------
Initializing wave functions:  reading from 'common.wfns'
----- createFluidSolver() ----- (Fluid-side solver setup)
   Initializing fluid molecule 'H2O'
     Initializing site 'O'
       Electron density: proportional to exp(-r/0.36935)*erfc((r-0.51523)/0.36823) with norm 6.826
       Charge density: gaussian nuclear width 0.478731 with net site charge 0.826
       Polarizability: cuspless exponential with width 0.32 and norm 3.73
       Hard sphere radius: 2.57003 bohrs
       Positions in reference frame:
         [ +0.000000 +0.000000 +0.000000 ]
     Initializing site 'H'
       Electron density: proportional to exp(-r/0.34641)*erfc((r-0)/0.390882) with norm 0.587
       Charge density: gaussian nuclear width 0.377945 with net site charge -0.413
       Polarizability: cuspless exponential with width 0.39 and norm 3.3
       Positions in reference frame:
         [ +0.000000 -1.441945 +1.122523 ]
         [ +0.000000 +1.441945 +1.122523 ]
     Net charge: 0   dipole magnitude: 0.927204
     Initializing spherical shell mfKernel with radius 2.61727 Bohr
     deltaS corrections:
       site 'O': -7.54299
       site 'H': -6.83917
   Initializing fluid molecule 'Na+'
     Initializing site 'Na'
       Electron density: proportional to exp(-r/0.19682)*erfc((r-0.71491)/0.41314) with norm 8.1383
       Charge density: gaussian nuclear width 0.365347 with net site charge -1
       Hard sphere radius: 1.86327 bohrs
       Positions in reference frame:
         [ +0.000000 +0.000000 +0.000000 ]
     Net charge: -1   dipole magnitude: 0
     Initializing gaussian mfKernel with width: 1.55004 Bohr
     deltaS corrections:
       site 'Na': -22.3555
   Initializing fluid molecule 'F-'
     Initializing site 'F'
       Electron density: proportional to exp(-r/0.38886)*erfc((r-0)/0.438782) with norm 8
       Charge density: gaussian nuclear width 0.374796 with net site charge 1
       Hard sphere radius: 2.39995 bohrs
       Positions in reference frame:
         [ +0.000000 +0.000000 +0.000000 ]
     Net charge: 1   dipole magnitude: 0
     Initializing gaussian mfKernel with width: 1.59012 Bohr
     deltaS corrections:
       site 'F': -9.04335

Correction to mu due to finite nuclear width = -0.0463682
   Cavity determined by nc: 0.00142 and sigma: 0.707107
   Nonlocal vdW cavity from gaussian model electron density with norm = 8 and sigma = 0.993594 bohr
   Charge asymmetry in cavity with sensitivity pCavity = 36.5 e-bohr/Eh
   Electrostatic cavity expanded by eta = 1.46 bohrs
   Weighted density cavitation model constrained by Nbulk: 0.0049383 bohr^-3, Pvap: 3.14029 kPa, Rvdw: 2.61727 bohr and sigmaBulk: 4.62e-05 Eh/bohr^2 at T: 298 K.
   Weighted density dispersion model using vdW pair potentials with single solvent site with sqrtC6eff: 0.77 SI.
Reading fluid state from 'common.fluidState'


---- Citations for features of the code used in this run ----

   Software package:
      R. Sundararaman, K. Letchworth-Weaver, K.A. Schwarz, D. Gunceler, Y. Ozhabes and T.A. Arias, 'JDFTx: software for joint density-functional theory', SoftwareX 6, 278 (2017)

   gga-PBEsol exchange-correlation functional:
      J.P. Perdew et al., Phys. Rev. Lett. 100, 136406 (2008)

   Pseudopotentials:
      KF Garrity, JW Bennett, KM Rabe and D Vanderbilt, Comput. Mater. Sci. 81, 446 (2014)

   Truncated Coulomb potentials:
      R. Sundararaman and T.A. Arias, Phys. Rev. B 87, 165122 (2013)

   Van der Waals correction pair-potentials:
      S. Grimme, J. Comput. Chem. 27, 1787 (2006)

   Charge-asymmetric nonlocally-determined local-electric (CANDLE) solvation model:
      R. Sundararaman and W.A. Goddard III, J. Chem. Phys. 142, 064107 (2015)

   Total energy minimization with Auxiliary Hamiltonian:
      C. Freysoldt, S. Boeck, and J. Neugebauer, Phys. Rev. B 79, 241103(R) (2009)

   Grand-canonical (fixed-potential) DFT:
      R. Sundararaman, W. A. Goddard III and T. A. Arias, J. Chem. Phys. 146, 114104 (2017)

This list may not be complete. Please suggest additional citations or
report any other bugs at https://github.com/shankar1729/jdftx/issues

Initialization completed successfully at t[s]:      3.04

Shifting auxilliary hamiltonian by 0.003577 to set nElectrons=79.899251
	Linear fluid (dielectric constant: 78.4, screening length: 5.74355 Bohr) occupying 0.601478 of unit cell:	Completed after 13 iterations at t[s]:      5.04

-------- Electronic minimization -----------
	Linear fluid (dielectric constant: 78.4, screening length: 5.74355 Bohr) occupying 0.601478 of unit cell:	Completed after 0 iterations at t[s]:      5.83
	FillingsUpdate:  mu: -0.234600000  nElectrons: 79.899251
ElecMinimize: Iter:   0  G: -426.384691655313190  |grad|_K:  2.241e-05  alpha:  1.000e+00
	Linear fluid (dielectric constant: 78.4, screening length: 5.74355 Bohr) occupying 0.648911 of unit cell:	Completed after 29 iterations at t[s]:      9.36
	Linear fluid (dielectric constant: 78.4, screening length: 5.74355 Bohr) occupying 0.601476 of unit cell:	Completed after 21 iterations at t[s]:     11.03
	FillingsUpdate:  mu: -0.234600000  nElectrons: 79.903468
	SubspaceRotationAdjust: set factor to 0.409
ElecMinimize: Iter:   1  G: -426.384698323575037  |grad|_K:  9.422e-06  alpha:  4.892e-03  linmin:  1.618e-01  t[s]:     12.39
	Linear fluid (dielectric constant: 78.4, screening length: 5.74355 Bohr) occupying 0.601474 of unit cell:	Completed after 12 iterations at t[s]:     13.86
	Linear fluid (dielectric constant: 78.4, screening length: 5.74355 Bohr) occupying 0.601472 of unit cell:	Completed after 10 iterations at t[s]:     15.21
	FillingsUpdate:  mu: -0.234600000  nElectrons: 79.902212
	SubspaceRotationAdjust: set factor to 0.171
ElecMinimize: Iter:   2  G: -426.384700375381158  |grad|_K:  2.867e-06  alpha:  8.513e-03  linmin:  2.324e-05  t[s]:     16.56
	Linear fluid (dielectric constant: 78.4, screening length: 5.74355 Bohr) occupying 0.601470 of unit cell:	Completed after 10 iterations at t[s]:     17.95
ElecMinimize: 	Predicted alpha/alphaT>3.000000, increasing alphaT to 2.554047e-02.
	Linear fluid (dielectric constant: 78.4, screening length: 5.74355 Bohr) occupying 0.601466 of unit cell:	Completed after 10 iterations at t[s]:     19.30
	Linear fluid (dielectric constant: 78.4, screening length: 5.74355 Bohr) occupying 0.601462 of unit cell:	Completed after 11 iterations at t[s]:     20.66
	FillingsUpdate:  mu: -0.234600000  nElectrons: 79.904004
	SubspaceRotationAdjust: set factor to 0.0965
	SubspaceRotationAdjust: resetting CG because factor has changed by 0.0964912
	Linear fluid (dielectric constant: 78.4, screening length: 5.74355 Bohr) occupying 0.601462 of unit cell:	Completed after 0 iterations at t[s]:     22.58
ElecMinimize: 	State modified externally: resetting search direction.
ElecMinimize: Iter:   3  G: -426.384701888992765  |grad|_K:  2.306e-06  alpha:  4.374e-02
	Linear fluid (dielectric constant: 78.4, screening length: 5.74355 Bohr) occupying 0.601461 of unit cell:	Completed after 12 iterations at t[s]:     25.61
	Linear fluid (dielectric constant: 78.4, screening length: 5.74355 Bohr) occupying 0.601461 of unit cell:	Completed after 0 iterations at t[s]:     26.67
	FillingsUpdate:  mu: -0.234600000  nElectrons: 79.903070
	SubspaceRotationAdjust: set factor to 0.0688
ElecMinimize: Iter:   4  G: -426.384702870169065  |grad|_K:  1.088e-06  alpha:  4.391e-02  linmin: -2.124e-03  t[s]:     28.02
	Linear fluid (dielectric constant: 78.4, screening length: 5.74355 Bohr) occupying 0.601460 of unit cell:	Completed after 6 iterations at t[s]:     29.32
ElecMinimize: 	Predicted alpha/alphaT>3.000000, increasing alphaT to 1.317205e-01.
	Linear fluid (dielectric constant: 78.4, screening length: 5.74355 Bohr) occupying 0.601456 of unit cell:	Completed after 9 iterations at t[s]:     30.77
ElecMinimize: 	Predicted alpha/alphaT>3.000000, increasing alphaT to 3.951615e-01.
	Linear fluid (dielectric constant: 78.4, screening length: 5.74355 Bohr) occupying 0.601446 of unit cell:	Completed after 12 iterations at t[s]:     32.31
	Linear fluid (dielectric constant: 78.4, screening length: 5.74355 Bohr) occupying 0.601440 of unit cell:	Completed after 11 iterations at t[s]:     33.83
	FillingsUpdate:  mu: -0.234600000  nElectrons: 79.904796
	SubspaceRotationAdjust: set factor to 0.104
ElecMinimize: Iter:   5  G: -426.384705623743230  |grad|_K:  7.551e-07  alpha:  5.503e-01  linmin: -2.254e-04  t[s]:     35.30
	Linear fluid (dielectric constant: 78.4, screening length: 5.74355 Bohr) occupying 0.601412 of unit cell:	Completed after 10 iterations at t[s]:     36.81
	Linear fluid (dielectric constant: 78.4, screening length: 5.74355 Bohr) occupying 0.601416 of unit cell:	Completed after 8 iterations at t[s]:     38.25
	FillingsUpdate:  mu: -0.234600000  nElectrons: 79.906153
	SubspaceRotationAdjust: set factor to 0.0549
ElecMinimize: Iter:   6  G: -426.384706742548076  |grad|_K:  1.541e-06  alpha:  4.659e-01  linmin: -1.084e-05  t[s]:     39.73
	Linear fluid (dielectric constant: 78.4, screening length: 5.74355 Bohr) occupying 0.601299 of unit cell:	Completed after 12 iterations at t[s]:     41.37
	Linear fluid (dielectric constant: 78.4, screening length: 5.74355 Bohr) occupying 0.601402 of unit cell:	Completed after 12 iterations at t[s]:     42.90
	FillingsUpdate:  mu: -0.234600000  nElectrons: 79.905856
	SubspaceRotationAdjust: set factor to 0.0406
ElecMinimize: Iter:   7  G: -426.384707313359968  |grad|_K:  6.818e-07  alpha:  5.698e-02  linmin: -9.135e-05  t[s]:     44.37
	Linear fluid (dielectric constant: 78.4, screening length: 5.74355 Bohr) occupying 0.601398 of unit cell:	Completed after 2 iterations at t[s]:     45.62
ElecMinimize: 	Predicted alpha/alphaT>3.000000, increasing alphaT to 1.709265e-01.
	Linear fluid (dielectric constant: 78.4, screening length: 5.74355 Bohr) occupying 0.601389 of unit cell:	Completed after 9 iterations at t[s]:     47.07
ElecMinimize: 	Predicted alpha/alphaT>3.000000, increasing alphaT to 5.127795e-01.
	Linear fluid (dielectric constant: 78.4, screening length: 5.74355 Bohr) occupying 0.601363 of unit cell:	Completed after 10 iterations at t[s]:     48.66
	Linear fluid (dielectric constant: 78.4, screening length: 5.74355 Bohr) occupying 0.601357 of unit cell:	Completed after 6 iterations at t[s]:     50.08
	FillingsUpdate:  mu: -0.234600000  nElectrons: 79.906023
	SubspaceRotationAdjust: set factor to 0.032
ElecMinimize: Iter:   8  G: -426.384708457198315  |grad|_K:  8.948e-07  alpha:  5.843e-01  linmin: -2.896e-06  t[s]:     51.65
	Linear fluid (dielectric constant: 78.4, screening length: 5.74355 Bohr) occupying 0.601268 of unit cell:	Completed after 13 iterations at t[s]:     53.32
	Linear fluid (dielectric constant: 78.4, screening length: 5.74355 Bohr) occupying 0.601333 of unit cell:	Completed after 12 iterations at t[s]:     54.92
	FillingsUpdate:  mu: -0.234600000  nElectrons: 79.906896
	SubspaceRotationAdjust: set factor to 0.0223
ElecMinimize: Iter:   9  G: -426.384708981831693  |grad|_K:  7.224e-07  alpha:  1.557e-01  linmin: -8.623e-06  t[s]:     56.38
	Linear fluid (dielectric constant: 78.4, screening length: 5.74355 Bohr) occupying 0.601316 of unit cell:	Completed after 8 iterations at t[s]:     57.92
	Linear fluid (dielectric constant: 78.4, screening length: 5.74355 Bohr) occupying 0.601283 of unit cell:	Completed after 9 iterations at t[s]:     59.44
	FillingsUpdate:  mu: -0.234600000  nElectrons: 79.907554
	SubspaceRotationAdjust: set factor to 0.0259
ElecMinimize: Iter:  10  G: -426.384709969658445  |grad|_K:  7.359e-07  alpha:  4.497e-01  linmin: -2.827e-05  t[s]:     61.00
	Linear fluid (dielectric constant: 78.4, screening length: 5.74355 Bohr) occupying 0.601232 of unit cell:	Completed after 10 iterations at t[s]:     62.63
	Linear fluid (dielectric constant: 78.4, screening length: 5.74355 Bohr) occupying 0.601251 of unit cell:	Completed after 10 iterations at t[s]:     64.17
	FillingsUpdate:  mu: -0.234600000  nElectrons: 79.907258
	SubspaceRotationAdjust: set factor to 0.0199
ElecMinimize: Iter:  11  G: -426.384710605858061  |grad|_K:  7.170e-07  alpha:  2.793e-01  linmin:  2.386e-06  t[s]:     65.70
	Linear fluid (dielectric constant: 78.4, screening length: 5.74355 Bohr) occupying 0.601220 of unit cell:	Completed after 8 iterations at t[s]:     67.21
	Linear fluid (dielectric constant: 78.4, screening length: 5.74355 Bohr) occupying 0.601202 of unit cell:	Completed after 6 iterations at t[s]:     68.59
	FillingsUpdate:  mu: -0.234600000  nElectrons: 79.907817
	SubspaceRotationAdjust: set factor to 0.0274
ElecMinimize: Iter:  12  G: -426.384711560190340  |grad|_K:  5.986e-07  alpha:  4.418e-01  linmin:  4.574e-06  t[s]:     70.11
	Linear fluid (dielectric constant: 78.4, screening length: 5.74355 Bohr) occupying 0.601170 of unit cell:	Completed after 12 iterations at t[s]:     71.74
	Linear fluid (dielectric constant: 78.4, screening length: 5.74355 Bohr) occupying 0.601177 of unit cell:	Completed after 9 iterations at t[s]:     73.21
	FillingsUpdate:  mu: -0.234600000  nElectrons: 79.908534
	SubspaceRotationAdjust: set factor to 0.0231
ElecMinimize: Iter:  13  G: -426.384712084852310  |grad|_K:  6.213e-07  alpha:  3.492e-01  linmin: -6.844e-05  t[s]:     74.70
	Linear fluid (dielectric constant: 78.4, screening length: 5.74355 Bohr) occupying 0.601151 of unit cell:	Completed after 10 iterations at t[s]:     76.33
	Linear fluid (dielectric constant: 78.4, screening length: 5.74355 Bohr) occupying 0.601155 of unit cell:	Completed after 7 iterations at t[s]:     77.75
	FillingsUpdate:  mu: -0.234600000  nElectrons: 79.908351
	SubspaceRotationAdjust: set factor to 0.0204
ElecMinimize: Iter:  14  G: -426.384712568293708  |grad|_K:  4.188e-07  alpha:  2.970e-01  linmin:  6.009e-05  t[s]:     79.29
	Linear fluid (dielectric constant: 78.4, screening length: 5.74355 Bohr) occupying 0.601145 of unit cell:	Completed after 6 iterations at t[s]:     80.74
	Linear fluid (dielectric constant: 78.4, screening length: 5.74355 Bohr) occupying 0.601137 of unit cell:	Completed after 6 iterations at t[s]:     82.17
	FillingsUpdate:  mu: -0.234600000  nElectrons: 79.908468
	SubspaceRotationAdjust: set factor to 0.021
ElecMinimize: Iter:  15  G: -426.384712972205250  |grad|_K:  3.770e-07  alpha:  5.495e-01  linmin:  2.538e-05  t[s]:     83.60
	Linear fluid (dielectric constant: 78.4, screening length: 5.74355 Bohr) occupying 0.601119 of unit cell:	Completed after 11 iterations at t[s]:     85.10
	Linear fluid (dielectric constant: 78.4, screening length: 5.74355 Bohr) occupying 0.601125 of unit cell:	Completed after 9 iterations at t[s]:     86.47
	FillingsUpdate:  mu: -0.234600000  nElectrons: 79.908967
	SubspaceRotationAdjust: set factor to 0.0156
ElecMinimize: Iter:  16  G: -426.384713178487061  |grad|_K:  3.467e-07  alpha:  3.454e-01  linmin:  1.740e-05  t[s]:     87.84
	Linear fluid (dielectric constant: 78.4, screening length: 5.74355 Bohr) occupying 0.601114 of unit cell:	Completed after 9 iterations at t[s]:     89.26
	Linear fluid (dielectric constant: 78.4, screening length: 5.74355 Bohr) occupying 0.601109 of unit cell:	Completed after 8 iterations at t[s]:     90.59
	FillingsUpdate:  mu: -0.234600000  nElectrons: 79.909009
	SubspaceRotationAdjust: set factor to 0.0185
ElecMinimize: Iter:  17  G: -426.384713422452592  |grad|_K:  2.706e-07  alpha:  4.839e-01  linmin:  1.015e-04  t[s]:     91.92
	Linear fluid (dielectric constant: 78.4, screening length: 5.74355 Bohr) occupying 0.601096 of unit cell:	Completed after 9 iterations at t[s]:     93.28
	Linear fluid (dielectric constant: 78.4, screening length: 5.74355 Bohr) occupying 0.601094 of unit cell:	Completed after 3 iterations at t[s]:     94.41
	FillingsUpdate:  mu: -0.234600000  nElectrons: 79.908988
	SubspaceRotationAdjust: set factor to 0.019
ElecMinimize: Iter:  18  G: -426.384713593836352  |grad|_K:  2.462e-07  alpha:  5.580e-01  linmin: -2.510e-04  t[s]:     95.79
	Linear fluid (dielectric constant: 78.4, screening length: 5.74355 Bohr) occupying 0.601079 of unit cell:	Completed after 10 iterations at t[s]:     97.16
	Linear fluid (dielectric constant: 78.4, screening length: 5.74355 Bohr) occupying 0.601082 of unit cell:	Completed after 7 iterations at t[s]:     98.41
	FillingsUpdate:  mu: -0.234600000  nElectrons: 79.909277
	SubspaceRotationAdjust: set factor to 0.0145
ElecMinimize: Iter:  19  G: -426.384713704405442  |grad|_K:  2.183e-07  alpha:  4.259e-01  linmin:  5.159e-04  t[s]:     99.76
	Linear fluid (dielectric constant: 78.4, screening length: 5.74355 Bohr) occupying 0.601072 of unit cell:	Completed after 10 iterations at t[s]:    101.15
	Linear fluid (dielectric constant: 78.4, screening length: 5.74355 Bohr) occupying 0.601071 of unit cell:	Completed after 0 iterations at t[s]:    102.16
	FillingsUpdate:  mu: -0.234600000  nElectrons: 79.909222
	SubspaceRotationAdjust: set factor to 0.0159
ElecMinimize: Iter:  20  G: -426.384713797077723  |grad|_K:  1.632e-07  alpha:  4.694e-01  linmin: -8.858e-04  t[s]:    103.50
	Linear fluid (dielectric constant: 78.4, screening length: 5.74355 Bohr) occupying 0.601065 of unit cell:	Completed after 7 iterations at t[s]:    104.77
	Linear fluid (dielectric constant: 78.4, screening length: 5.74355 Bohr) occupying 0.601065 of unit cell:	Completed after 0 iterations at t[s]:    105.84
	FillingsUpdate:  mu: -0.234600000  nElectrons: 79.909203
	SubspaceRotationAdjust: set factor to 0.0175
ElecMinimize: Iter:  21  G: -426.384713856802023  |grad|_K:  1.387e-07  alpha:  5.167e-01  linmin: -1.166e-03  t[s]:    107.20
	Linear fluid (dielectric constant: 78.4, screening length: 5.74355 Bohr) occupying 0.601060 of unit cell:	Completed after 10 iterations at t[s]:    108.65
	Linear fluid (dielectric constant: 78.4, screening length: 5.74355 Bohr) occupying 0.601060 of unit cell:	Completed after 2 iterations at t[s]:    109.79
	FillingsUpdate:  mu: -0.234600000  nElectrons: 79.909340
	SubspaceRotationAdjust: set factor to 0.0148
ElecMinimize: Iter:  22  G: -426.384713894456468  |grad|_K:  1.315e-07  alpha:  4.474e-01  linmin:  8.354e-04  t[s]:    111.18
	Linear fluid (dielectric constant: 78.4, screening length: 5.74355 Bohr) occupying 0.601056 of unit cell:	Completed after 9 iterations at t[s]:    112.60
	Linear fluid (dielectric constant: 78.4, screening length: 5.74355 Bohr) occupying 0.601056 of unit cell:	Completed after 0 iterations at t[s]:    113.62
	FillingsUpdate:  mu: -0.234600000  nElectrons: 79.909311
	SubspaceRotationAdjust: set factor to 0.0157
ElecMinimize: Iter:  23  G: -426.384713928049450  |grad|_K:  1.091e-07  alpha:  4.739e-01  linmin: -9.652e-04  t[s]:    115.04
	Linear fluid (dielectric constant: 78.4, screening length: 5.74355 Bohr) occupying 0.601053 of unit cell:	Completed after 6 iterations at t[s]:    116.36
	Linear fluid (dielectric constant: 78.4, screening length: 5.74355 Bohr) occupying 0.601052 of unit cell:	Completed after 0 iterations at t[s]:    117.41
	FillingsUpdate:  mu: -0.234600000  nElectrons: 79.909323
	SubspaceRotationAdjust: set factor to 0.018
ElecMinimize: Iter:  24  G: -426.384713958360521  |grad|_K:  1.099e-07  alpha:  5.806e-01  linmin: -5.459e-04  t[s]:    118.82
	Linear fluid (dielectric constant: 78.4, screening length: 5.74355 Bohr) occupying 0.601047 of unit cell:	Completed after 7 iterations at t[s]:    120.20
	Linear fluid (dielectric constant: 78.4, screening length: 5.74355 Bohr) occupying 0.601047 of unit cell:	Completed after 2 iterations at t[s]:    121.37
	FillingsUpdate:  mu: -0.234600000  nElectrons: 79.909461
	SubspaceRotationAdjust: set factor to 0.0173
ElecMinimize: Iter:  25  G: -426.384713991787180  |grad|_K:  1.215e-07  alpha:  6.468e-01  linmin:  1.884e-04  t[s]:    122.78
	Linear fluid (dielectric constant: 78.4, screening length: 5.74355 Bohr) occupying 0.601039 of unit cell:	Completed after 6 iterations at t[s]:    124.15
	Linear fluid (dielectric constant: 78.4, screening length: 5.74355 Bohr) occupying 0.601039 of unit cell:	Completed after 0 iterations at t[s]:    125.24
	FillingsUpdate:  mu: -0.234600000  nElectrons: 79.909467
	SubspaceRotationAdjust: set factor to 0.0181
ElecMinimize: Iter:  26  G: -426.384714033863418  |grad|_K:  1.361e-07  alpha:  6.864e-01  linmin: -2.803e-05  t[s]:    126.74
	Linear fluid (dielectric constant: 78.4, screening length: 5.74355 Bohr) occupying 0.601027 of unit cell:	Completed after 7 iterations at t[s]:    128.18
	Linear fluid (dielectric constant: 78.4, screening length: 5.74355 Bohr) occupying 0.601027 of unit cell:	Completed after 0 iterations at t[s]:    129.29
	FillingsUpdate:  mu: -0.234600000  nElectrons: 79.909505
	SubspaceRotationAdjust: set factor to 0.0199
ElecMinimize: Iter:  27  G: -426.384714084199516  |grad|_K:  1.596e-07  alpha:  6.465e-01  linmin: -6.241e-05  t[s]:    130.73
	Linear fluid (dielectric constant: 78.4, screening length: 5.74355 Bohr) occupying 0.601010 of unit cell:	Completed after 10 iterations at t[s]:    132.23
	Linear fluid (dielectric constant: 78.4, screening length: 5.74355 Bohr) occupying 0.601015 of unit cell:	Completed after 7 iterations at t[s]:    133.60
	FillingsUpdate:  mu: -0.234600000  nElectrons: 79.909703
	SubspaceRotationAdjust: set factor to 0.0167
ElecMinimize: Iter:  28  G: -426.384714132679676  |grad|_K:  1.720e-07  alpha:  4.527e-01  linmin:  2.276e-05  t[s]:    135.01
	Linear fluid (dielectric constant: 78.4, screening length: 5.74355 Bohr) occupying 0.601001 of unit cell:	Completed after 7 iterations at t[s]:    136.42
	Linear fluid (dielectric constant: 78.4, screening length: 5.74355 Bohr) occupying 0.601001 of unit cell:	Completed after 0 iterations at t[s]:    137.53
	FillingsUpdate:  mu: -0.234600000  nElectrons: 79.909697
	SubspaceRotationAdjust: set factor to 0.0171
ElecMinimize: Iter:  29  G: -426.384714188612406  |grad|_K:  1.523e-07  alpha:  4.513e-01  linmin: -3.340e-05  t[s]:    139.01
	Linear fluid (dielectric constant: 78.4, screening length: 5.74355 Bohr) occupying 0.600989 of unit cell:	Completed after 6 iterations at t[s]:    140.41
	Linear fluid (dielectric constant: 78.4, screening length: 5.74355 Bohr) occupying 0.600988 of unit cell:	Completed after 0 iterations at t[s]:    141.52
	FillingsUpdate:  mu: -0.234600000  nElectrons: 79.909708
	SubspaceRotationAdjust: set factor to 0.0187
ElecMinimize: Iter:  30  G: -426.384714238996310  |grad|_K:  1.361e-07  alpha:  5.145e-01  linmin: -1.330e-04  t[s]:    143.00
	Linear fluid (dielectric constant: 78.4, screening length: 5.74355 Bohr) occupying 0.600977 of unit cell:	Completed after 9 iterations at t[s]:    144.49
	Linear fluid (dielectric constant: 78.4, screening length: 5.74355 Bohr) occupying 0.600978 of unit cell:	Completed after 2 iterations at t[s]:    145.72
	FillingsUpdate:  mu: -0.234600000  nElectrons: 79.909835
	SubspaceRotationAdjust: set factor to 0.0158
ElecMinimize: Iter:  31  G: -426.384714273256350  |grad|_K:  1.178e-07  alpha:  4.312e-01  linmin:  4.351e-04  t[s]:    147.15
	Linear fluid (dielectric constant: 78.4, screening length: 5.74355 Bohr) occupying 0.600972 of unit cell:	Completed after 9 iterations at t[s]:    148.65
	Linear fluid (dielectric constant: 78.4, screening length: 5.74355 Bohr) occupying 0.600973 of unit cell:	Completed after 0 iterations at t[s]:    149.78
	FillingsUpdate:  mu: -0.234600000  nElectrons: 79.909804
	SubspaceRotationAdjust: set factor to 0.0135
ElecMinimize: Iter:  32  G: -426.384714294428363  |grad|_K:  8.902e-08  alpha:  3.791e-01  linmin:  5.366e-05  t[s]:    151.23
	Linear fluid (dielectric constant: 78.4, screening length: 5.74355 Bohr) occupying 0.600969 of unit cell:	Completed after 3 iterations at t[s]:    152.51
	Linear fluid (dielectric constant: 78.4, screening length: 5.74355 Bohr) occupying 0.600969 of unit cell:	Completed after 0 iterations at t[s]:    153.63
	FillingsUpdate:  mu: -0.234600000  nElectrons: 79.909849
	SubspaceRotationAdjust: set factor to 0.0161
ElecMinimize: Iter:  33  G: -426.384714310515562  |grad|_K:  6.639e-08  alpha:  4.802e-01  linmin: -5.604e-04  t[s]:    155.10
	Linear fluid (dielectric constant: 78.4, screening length: 5.74355 Bohr) occupying 0.600966 of unit cell:	Completed after 6 iterations at t[s]:    156.47
	Linear fluid (dielectric constant: 78.4, screening length: 5.74355 Bohr) occupying 0.600967 of unit cell:	Completed after 0 iterations at t[s]:    157.56
	FillingsUpdate:  mu: -0.234600000  nElectrons: 79.909890
	SubspaceRotationAdjust: set factor to 0.014
ElecMinimize: Iter:  34  G: -426.384714317764349  |grad|_K:  6.843e-08  alpha:  3.891e-01  linmin: -5.329e-04  t[s]:    158.97
	Linear fluid (dielectric constant: 78.4, screening length: 5.74355 Bohr) occupying 0.600965 of unit cell:	Completed after 8 iterations at t[s]:    160.40
	Linear fluid (dielectric constant: 78.4, screening length: 5.74355 Bohr) occupying 0.600966 of unit cell:	Completed after 3 iterations at t[s]:    161.63
	FillingsUpdate:  mu: -0.234600000  nElectrons: 79.909859
	SubspaceRotationAdjust: set factor to 0.0129
	SubspaceRotationAdjust: resetting CG because factor has changed by 0.1341
	Linear fluid (dielectric constant: 78.4, screening length: 5.74355 Bohr) occupying 0.600966 of unit cell:	Completed after 0 iterations at t[s]:    163.67
ElecMinimize: 	State modified externally: resetting search direction.
ElecMinimize: Iter:  35  G: -426.384714322961941  |grad|_K:  4.924e-08  alpha:  2.675e-01
ElecMinimize: Converged (|Delta G|<1.000000e-08 for 2 iters).
Setting wave functions to eigenvectors of Hamiltonian

# Ionic positions in lattice coordinates:
ion Pt   0.333333333333333  -0.333333333333333  -0.237676000000000 1
ion Pt  -0.333333333333333   0.333333333333333  -0.118838000000000 1
ion Pt   0.000000000000000   0.000000000000000   0.000000000000000 1
ion Pt   0.333333333333333  -0.333333333333333   0.118838000000000 1
ion Pt  -0.333333333333333   0.333333333333333   0.237676000000000 1


# Forces in Lattice coordinates:
force Pt  -0.000000000000000  -0.000000000000000  -0.027902232820274 1
force Pt   0.000000000000000  -0.000000000000000   0.066525944383932 1
force Pt  -0.000000000000000   0.000000000000000  -0.000000000000000 1
force Pt   0.000000000000000   0.000000000000000  -0.066525944383932 1
force Pt   0.000000000000000  -0.000000000000000   0.027902232820274 1

# Energy components:
   A_diel =        0.0181453599864335
   Eewald =     4702.9680318706023172
       EH =     5096.8768739907072813
     Eloc =   -10321.7830814109911444
      Enl =       -5.2822853467542403
      Exc =     -141.5367726753821671
 Exc_core =       81.2082896017070937
       KE =      142.4523818675216376
  MuShift =        0.0041796898819606
-------------------------------------
     Etot =     -445.0742370527220828
       TS =        0.0573301212194349
-------------------------------------
        F =     -445.1315671739415052
      muN =      -18.7468528509795895
-------------------------------------
        G =     -426.3847143229619405

IonicMinimize: Iter:   0  G: -426.384714322961941  |grad|_K:  7.317e-04  t[s]:    165.65
IonicMinimize: None of the convergence criteria satisfied after 0 iterations.

#--- Lowdin population analysis ---
# oxidation-state Pt +0.053 +0.014 +0.014 +0.014 +0.053


Dumping 'common.fillings' ... done
Dumping 'common.wfns' ... done
Dumping 'common.fluidState' ... done
Dumping 'common.eigenvals' ... done
Dumping 'common.nbound' ... done
End date and time: Tue Mar 19 06:13:36 2019  (Duration: 0-0:02:45.93)
Done!
