
*************** JDFTx 1.4.2  ***************

Start date and time: Tue Mar 19 06:50:14 2019
Executable jdftx with command-line: -i Charged.in
Running on hosts (process indices):  Juans-MBP.lan1 (0-3)
Divided in process groups (process indices):  0 (0)  1 (1)  2 (2)  3 (3)
Resource initialization completed at t[s]:      0.00
Run totals: 4 processes, 12 threads, 0 GPUs


Input parsed successfully to the following command list (including defaults):

basis kpoint-dependent
coords-type Lattice
core-overlap-check vector
coulomb-interaction Slab 001
coulomb-truncation-embed 0 0 0
davidson-band-ratio 1.1
dump End State BoundCharge
dump-name common.$VAR
elec-cutoff 20 100
elec-eigen-algo Davidson
elec-ex-corr gga-PBEsol
elec-smearing Fermi 0.01
electronic-minimize  \
	dirUpdateScheme      FletcherReeves \
	linminMethod         DirUpdateRecommended \
	nIterations          200 \
	history              15 \
	knormThreshold       0 \
	energyDiffThreshold  1e-08 \
	nEnergyDiff          2 \
	alphaTstart          1 \
	alphaTmin            1e-10 \
	updateTestStepSize   yes \
	alphaTreduceFactor   0.1 \
	alphaTincreaseFactor 3 \
	nAlphaAdjustMax      3 \
	wolfeEnergy          0.0001 \
	wolfeGradient        0.9 \
	fdTest               no
exchange-regularization WignerSeitzTruncated
fluid LinearPCM 298.000000 1.013250
fluid-anion F- 1 MeanFieldLJ \
	epsBulk 1 \
	pMol 0 \
	epsInf 1 \
	Pvap 0 \
	sigmaBulk 0 \
	Rvdw 2.24877 \
	Res 0
fluid-cation Na+ 1 MeanFieldLJ \
	epsBulk 1 \
	pMol 0 \
	epsInf 1 \
	Pvap 0 \
	sigmaBulk 0 \
	Rvdw 2.19208 \
	Res 0
fluid-ex-corr lda-TF lda-PZ
fluid-gummel-loop 10 1.000000e-05
fluid-minimize  \
	dirUpdateScheme      PolakRibiere \
	linminMethod         DirUpdateRecommended \
	nIterations          400 \
	history              15 \
	knormThreshold       1e-11 \
	energyDiffThreshold  0 \
	nEnergyDiff          2 \
	alphaTstart          1 \
	alphaTmin            1e-10 \
	updateTestStepSize   yes \
	alphaTreduceFactor   0.1 \
	alphaTincreaseFactor 3 \
	nAlphaAdjustMax      6 \
	wolfeEnergy          0.0001 \
	wolfeGradient        0.9 \
	fdTest               no
fluid-solvent H2O 55.338 ScalarEOS \
	epsBulk 78.4 \
	pMol 0.92466 \
	epsInf 1.77 \
	Pvap 1.06736e-10 \
	sigmaBulk 4.62e-05 \
	Rvdw 2.61727 \
	Res 1.42
forces-output-coords Positions
initial-state common.$VAR
ion Pt   0.333333000000000  -0.333333000000000  -0.237676000000000 1
ion Pt  -0.333333000000000   0.333333000000000  -0.118838000000000 1
ion Pt   0.000000000000000   0.000000000000000   0.000000000000000 1
ion Pt   0.333333000000000  -0.333333000000000   0.118838000000000 1
ion Pt  -0.333333000000000   0.333333000000000   0.237676000000000 1
ion-species GBRV/$ID_pbesol.uspp
ion-width Ecut
ionic-minimize  \
	dirUpdateScheme      L-BFGS \
	linminMethod         DirUpdateRecommended \
	nIterations          0 \
	history              15 \
	knormThreshold       0.0001 \
	energyDiffThreshold  1e-06 \
	nEnergyDiff          2 \
	alphaTstart          1 \
	alphaTmin            1e-10 \
	updateTestStepSize   yes \
	alphaTreduceFactor   0.1 \
	alphaTincreaseFactor 3 \
	nAlphaAdjustMax      3 \
	wolfeEnergy          0.0001 \
	wolfeGradient        0.9 \
	fdTest               no
kpoint   0.000000000000   0.000000000000   0.000000000000  1.00000000000000
kpoint-folding 12 12 1 
latt-move-scale 1 1 1
latt-scale 1 1 1 
lattice Hexagonal 5.23966 36
lattice-minimize  \
	dirUpdateScheme      L-BFGS \
	linminMethod         DirUpdateRecommended \
	nIterations          0 \
	history              15 \
	knormThreshold       0 \
	energyDiffThreshold  1e-06 \
	nEnergyDiff          2 \
	alphaTstart          1 \
	alphaTmin            1e-10 \
	updateTestStepSize   yes \
	alphaTreduceFactor   0.1 \
	alphaTincreaseFactor 3 \
	nAlphaAdjustMax      3 \
	wolfeEnergy          0.0001 \
	wolfeGradient        0.9 \
	fdTest               no
lcao-params -1 1e-06 0.01
pcm-variant CANDLE
spintype no-spin
subspace-rotation-factor 1 yes
symmetries automatic
symmetry-threshold 0.0001
target-mu -0.1758 no




---------- Setting up symmetries ----------

Found 24 point-group symmetries of the bravais lattice
Found 12 space-group symmetries with basis
Applied RMS atom displacement 2.70575e-06 bohrs to make symmetries exact.

---------- Initializing the Grid ----------
R = 
[    5.23966   -2.61983          0  ]
[          0    4.53768          0  ]
[          0          0         36  ]
unit cell volume = 855.932
G =
[    1.19916   0.692335         -0  ]
[          0    1.38467          0  ]
[          0         -0   0.174533  ]
Minimum fftbox size, Smin = [  24  24  164  ]
Chosen fftbox size, S = [  24  24  168  ]

---------- Initializing tighter grid for wavefunction operations ----------
R = 
[    5.23966   -2.61983          0  ]
[          0    4.53768          0  ]
[          0          0         36  ]
unit cell volume = 855.932
G =
[    1.19916   0.692335         -0  ]
[          0    1.38467          0  ]
[          0         -0   0.174533  ]
Minimum fftbox size, Smin = [  24  24  148  ]
Chosen fftbox size, S = [  24  24  150  ]

---------- Exchange Correlation functional ----------
Initalized PBEsol GGA exchange.
Initalized PBEsol GGA correlation.

---------- Setting up pseudopotentials ----------
Width of ionic core gaussian charges (only for fluid interactions / plotting) set to 0.397384

Reading pseudopotential file '/Users/juanmendezvalderrama/Documents/JDFTX/build/pseudopotentials/GBRV/pt_pbesol.uspp':
  Title: Pt.  Created by USPP 7.3.6 on 22-9-15
  Reference state energy: -104.899005.  16 valence electrons in orbitals:
    |510>  occupation: 6  eigenvalue: -2.158847
    |520>  occupation: 9.5  eigenvalue: -0.336311
    |600>  occupation: 0  eigenvalue: -0.320324
    |610>  occupation: 0  eigenvalue: -0.119800
  lMax: 2  lLocal: 3  QijEcut: 5.5
  6 projectors sampled on a log grid with 745 points:
    l: 0  eig: -0.320324  rCut: 2.45
    l: 0  eig: 1.500000  rCut: 2.45
    l: 1  eig: -2.158847  rCut: 1.6
    l: 1  eig: -0.119800  rCut: 1.6
    l: 2  eig: -0.500000  rCut: 1.6
    l: 2  eig: -0.336311  rCut: 1.6
  Partial core density with radius 1.1
  Transforming core density to a uniform radial grid of dG=0.02 with 1620 points.
  Transforming local potential to a uniform radial grid of dG=0.02 with 1620 points.
  Transforming nonlocal projectors to a uniform radial grid of dG=0.02 with 432 points.
  Transforming density augmentations to a uniform radial grid of dG=0.02 with 1620 points.
  Transforming atomic orbitals to a uniform radial grid of dG=0.02 with 432 points.
  Core radius for overlap checks: 2.45 bohrs.

Initialized 1 species with 5 total atoms.

Folded 1 k-points by 12x12x1 to 144 k-points.

---------- Setting up k-points, bands, fillings ----------
Reduced to 19 k-points under symmetry. 
Computing the number of bands and number of electrons
Reading initial fillings from file common.fillings.
nElectrons:  80.151250   nBands: 60   nStates: 19

----- Setting up reduced wavefunction bases (one per k-point) -----
average nbasis = 3657.132 , ideal nbasis = 3656.607

---------- Setting up coulomb interaction ----------
Fluid mode embedding: using embedded box, but periodic Coulomb kernel.
(Fluid response is responsible for (approximate) separation between periodic images.)
Setting up double-sized grid for truncated Coulomb potentials:
R = 
[    5.23966   -2.61983          0  ]
[          0    4.53768          0  ]
[          0          0         72  ]
unit cell volume = 1711.86
G =
[    1.19916   0.692335         -0  ]
[          0    1.38467          0  ]
[          0         -0  0.0872665  ]
Chosen fftbox size, S = [  24  24  336  ]
Integer grid location selected as the embedding center:
   Grid: [  0  0  0  ]
   Lattice: [  0  0  0  ]
   Cartesian: [  0  0  0  ]
Constructing Wigner-Seitz cell: 8 faces (6 quadrilaterals, 2 hexagons)
Range-separation parameter for embedded mesh potentials due to point charges: 0.589462 bohrs.

Initializing van der Waals corrections
	NOTE: vdW corrections apply only for interactions with fluid.
	Pt:  C6:  815.23 Eh-a0^6  R0: 3.326 a0 (WARNING: beyond Grimme's data set)

---------- Setting up ewald sum ----------
Optimum gaussian width for ewald sums = 3.649540 bohr.
Real space sum over 1805 unit cells with max indices [  9  9  2  ]
Reciprocal space sum over 5103 terms with max indices [  4  4  31  ]

---------- Allocating electronic variables ----------
Initializing wave functions:  reading from 'common.wfns'
----- createFluidSolver() ----- (Fluid-side solver setup)
   Initializing fluid molecule 'H2O'
     Initializing site 'O'
       Electron density: proportional to exp(-r/0.36935)*erfc((r-0.51523)/0.36823) with norm 6.826
       Charge density: gaussian nuclear width 0.478731 with net site charge 0.826
       Polarizability: cuspless exponential with width 0.32 and norm 3.73
       Hard sphere radius: 2.57003 bohrs
       Positions in reference frame:
         [ +0.000000 +0.000000 +0.000000 ]
     Initializing site 'H'
       Electron density: proportional to exp(-r/0.34641)*erfc((r-0)/0.390882) with norm 0.587
       Charge density: gaussian nuclear width 0.377945 with net site charge -0.413
       Polarizability: cuspless exponential with width 0.39 and norm 3.3
       Positions in reference frame:
         [ +0.000000 -1.441945 +1.122523 ]
         [ +0.000000 +1.441945 +1.122523 ]
     Net charge: 0   dipole magnitude: 0.927204
     Initializing spherical shell mfKernel with radius 2.61727 Bohr
     deltaS corrections:
       site 'O': -7.54299
       site 'H': -6.83917
   Initializing fluid molecule 'Na+'
     Initializing site 'Na'
       Electron density: proportional to exp(-r/0.19682)*erfc((r-0.71491)/0.41314) with norm 8.1383
       Charge density: gaussian nuclear width 0.365347 with net site charge -1
       Hard sphere radius: 1.86327 bohrs
       Positions in reference frame:
         [ +0.000000 +0.000000 +0.000000 ]
     Net charge: -1   dipole magnitude: 0
     Initializing gaussian mfKernel with width: 1.55004 Bohr
     deltaS corrections:
       site 'Na': -22.3555
   Initializing fluid molecule 'F-'
     Initializing site 'F'
       Electron density: proportional to exp(-r/0.38886)*erfc((r-0)/0.438782) with norm 8
       Charge density: gaussian nuclear width 0.374796 with net site charge 1
       Hard sphere radius: 2.39995 bohrs
       Positions in reference frame:
         [ +0.000000 +0.000000 +0.000000 ]
     Net charge: 1   dipole magnitude: 0
     Initializing gaussian mfKernel with width: 1.59012 Bohr
     deltaS corrections:
       site 'F': -9.04335

Correction to mu due to finite nuclear width = -0.0463682
   Cavity determined by nc: 0.00142 and sigma: 0.707107
   Nonlocal vdW cavity from gaussian model electron density with norm = 8 and sigma = 0.993594 bohr
   Charge asymmetry in cavity with sensitivity pCavity = 36.5 e-bohr/Eh
   Electrostatic cavity expanded by eta = 1.46 bohrs
   Weighted density cavitation model constrained by Nbulk: 0.0049383 bohr^-3, Pvap: 3.14029 kPa, Rvdw: 2.61727 bohr and sigmaBulk: 4.62e-05 Eh/bohr^2 at T: 298 K.
   Weighted density dispersion model using vdW pair potentials with single solvent site with sqrtC6eff: 0.77 SI.
Reading fluid state from 'common.fluidState'


---- Citations for features of the code used in this run ----

   Software package:
      R. Sundararaman, K. Letchworth-Weaver, K.A. Schwarz, D. Gunceler, Y. Ozhabes and T.A. Arias, 'JDFTx: software for joint density-functional theory', SoftwareX 6, 278 (2017)

   gga-PBEsol exchange-correlation functional:
      J.P. Perdew et al., Phys. Rev. Lett. 100, 136406 (2008)

   Pseudopotentials:
      KF Garrity, JW Bennett, KM Rabe and D Vanderbilt, Comput. Mater. Sci. 81, 446 (2014)

   Truncated Coulomb potentials:
      R. Sundararaman and T.A. Arias, Phys. Rev. B 87, 165122 (2013)

   Van der Waals correction pair-potentials:
      S. Grimme, J. Comput. Chem. 27, 1787 (2006)

   Charge-asymmetric nonlocally-determined local-electric (CANDLE) solvation model:
      R. Sundararaman and W.A. Goddard III, J. Chem. Phys. 142, 064107 (2015)

   Total energy minimization with Auxiliary Hamiltonian:
      C. Freysoldt, S. Boeck, and J. Neugebauer, Phys. Rev. B 79, 241103(R) (2009)

   Grand-canonical (fixed-potential) DFT:
      R. Sundararaman, W. A. Goddard III and T. A. Arias, J. Chem. Phys. 146, 114104 (2017)

This list may not be complete. Please suggest additional citations or
report any other bugs at https://github.com/shankar1729/jdftx/issues

Initialization completed successfully at t[s]:      4.73

Shifting auxilliary hamiltonian by 0.003677 to set nElectrons=80.151250
	Linear fluid (dielectric constant: 78.4, screening length: 5.74355 Bohr) occupying 0.613120 of unit cell:	Completed after 6 iterations at t[s]:      6.98

-------- Electronic minimization -----------
	Linear fluid (dielectric constant: 78.4, screening length: 5.74355 Bohr) occupying 0.613120 of unit cell:	Completed after 0 iterations at t[s]:      7.91
	FillingsUpdate:  mu: -0.175800000  nElectrons: 80.151250
ElecMinimize: Iter:   0  G: -431.089016136024895  |grad|_K:  1.722e-05  alpha:  1.000e+00
	Linear fluid (dielectric constant: 78.4, screening length: 5.74355 Bohr) occupying 0.644813 of unit cell:	Completed after 27 iterations at t[s]:     12.15
	Linear fluid (dielectric constant: 78.4, screening length: 5.74355 Bohr) occupying 0.613926 of unit cell:	Completed after 28 iterations at t[s]:     14.39
	FillingsUpdate:  mu: -0.175800000  nElectrons: 80.154723
	SubspaceRotationAdjust: set factor to 0.521
ElecMinimize: Iter:   1  G: -431.089022149746370  |grad|_K:  5.977e-06  alpha:  5.220e-03  linmin:  3.647e-02  t[s]:     16.02
	Linear fluid (dielectric constant: 78.4, screening length: 5.74355 Bohr) occupying 0.613961 of unit cell:	Completed after 12 iterations at t[s]:     17.79
ElecMinimize: 	Predicted alpha/alphaT>3.000000, increasing alphaT to 1.566119e-02.
	Linear fluid (dielectric constant: 78.4, screening length: 5.74355 Bohr) occupying 0.614031 of unit cell:	Completed after 14 iterations at t[s]:     19.54
	Linear fluid (dielectric constant: 78.4, screening length: 5.74355 Bohr) occupying 0.614220 of unit cell:	Completed after 14 iterations at t[s]:     21.28
	FillingsUpdate:  mu: -0.175800000  nElectrons: 80.156132
	SubspaceRotationAdjust: set factor to 0.265
ElecMinimize: Iter:   2  G: -431.089028227384119  |grad|_K:  6.669e-06  alpha:  4.396e-02  linmin:  5.267e-05  t[s]:     22.86
	Linear fluid (dielectric constant: 78.4, screening length: 5.74355 Bohr) occupying 0.616284 of unit cell:	Completed after 17 iterations at t[s]:     24.78
	Linear fluid (dielectric constant: 78.4, screening length: 5.74355 Bohr) occupying 0.614970 of unit cell:	Completed after 16 iterations at t[s]:     26.62
	FillingsUpdate:  mu: -0.175800000  nElectrons: 80.159495
	SubspaceRotationAdjust: set factor to 0.126
	SubspaceRotationAdjust: resetting CG because factor has changed by 0.125614
	Linear fluid (dielectric constant: 78.4, screening length: 5.74355 Bohr) occupying 0.614970 of unit cell:	Completed after 0 iterations at t[s]:     28.87
ElecMinimize: 	State modified externally: resetting search direction.
ElecMinimize: Iter:   3  G: -431.089031169246141  |grad|_K:  1.937e-06  alpha:  1.572e-02
	Linear fluid (dielectric constant: 78.4, screening length: 5.74355 Bohr) occupying 0.614929 of unit cell:	Completed after 12 iterations at t[s]:     32.32
ElecMinimize: 	Predicted alpha/alphaT>3.000000, increasing alphaT to 4.717459e-02.
	Linear fluid (dielectric constant: 78.4, screening length: 5.74355 Bohr) occupying 0.614848 of unit cell:	Completed after 14 iterations at t[s]:     34.11
	Linear fluid (dielectric constant: 78.4, screening length: 5.74355 Bohr) occupying 0.614683 of unit cell:	Completed after 14 iterations at t[s]:     35.89
	FillingsUpdate:  mu: -0.175800000  nElectrons: 80.158260
	SubspaceRotationAdjust: set factor to 0.0686
ElecMinimize: Iter:   4  G: -431.089032917423822  |grad|_K:  2.525e-06  alpha:  1.107e-01  linmin: -1.239e-04  t[s]:     37.57
	Linear fluid (dielectric constant: 78.4, screening length: 5.74355 Bohr) occupying 0.614935 of unit cell:	Completed after 15 iterations at t[s]:     39.49
	Linear fluid (dielectric constant: 78.4, screening length: 5.74355 Bohr) occupying 0.615002 of unit cell:	Completed after 14 iterations at t[s]:     41.23
	FillingsUpdate:  mu: -0.175800000  nElectrons: 80.159763
	SubspaceRotationAdjust: set factor to 0.0712
ElecMinimize: Iter:   5  G: -431.089036689253021  |grad|_K:  1.121e-06  alpha:  1.406e-01  linmin: -1.256e-04  t[s]:     42.82
	Linear fluid (dielectric constant: 78.4, screening length: 5.74355 Bohr) occupying 0.615109 of unit cell:	Completed after 10 iterations at t[s]:     44.50
ElecMinimize: 	Predicted alpha/alphaT>3.000000, increasing alphaT to 4.219174e-01.
	Linear fluid (dielectric constant: 78.4, screening length: 5.74355 Bohr) occupying 0.615322 of unit cell:	Completed after 12 iterations at t[s]:     46.17
	Linear fluid (dielectric constant: 78.4, screening length: 5.74355 Bohr) occupying 0.615710 of unit cell:	Completed after 14 iterations at t[s]:     47.91
	FillingsUpdate:  mu: -0.175800000  nElectrons: 80.163189
	SubspaceRotationAdjust: set factor to 0.0923
ElecMinimize: Iter:   6  G: -431.089041643143901  |grad|_K:  1.276e-06  alpha:  9.383e-01  linmin:  9.071e-05  t[s]:     49.57
	Linear fluid (dielectric constant: 78.4, screening length: 5.74355 Bohr) occupying 0.616420 of unit cell:	Completed after 15 iterations at t[s]:     51.57
	Linear fluid (dielectric constant: 78.4, screening length: 5.74355 Bohr) occupying 0.616182 of unit cell:	Completed after 14 iterations at t[s]:     53.36
	FillingsUpdate:  mu: -0.175800000  nElectrons: 80.165693
	SubspaceRotationAdjust: set factor to 0.0775
ElecMinimize: Iter:   7  G: -431.089045892028537  |grad|_K:  1.877e-06  alpha:  6.212e-01  linmin:  3.241e-06  t[s]:     55.02
	Linear fluid (dielectric constant: 78.4, screening length: 5.74355 Bohr) occupying 0.619143 of unit cell:	Completed after 17 iterations at t[s]:     57.11
	Linear fluid (dielectric constant: 78.4, screening length: 5.74355 Bohr) occupying 0.616611 of unit cell:	Completed after 17 iterations at t[s]:     59.15
	FillingsUpdate:  mu: -0.175800000  nElectrons: 80.167793
	SubspaceRotationAdjust: set factor to 0.0493
ElecMinimize: Iter:   8  G: -431.089047187584924  |grad|_K:  1.446e-06  alpha:  8.672e-02  linmin: -3.118e-04  t[s]:     61.05
	Linear fluid (dielectric constant: 78.4, screening length: 5.74355 Bohr) occupying 0.616692 of unit cell:	Completed after 4 iterations at t[s]:     62.64
ElecMinimize: 	Predicted alpha/alphaT>3.000000, increasing alphaT to 2.601645e-01.
	Linear fluid (dielectric constant: 78.4, screening length: 5.74355 Bohr) occupying 0.616853 of unit cell:	Completed after 11 iterations at t[s]:     64.41
	Linear fluid (dielectric constant: 78.4, screening length: 5.74355 Bohr) occupying 0.617146 of unit cell:	Completed after 11 iterations at t[s]:     66.27
	FillingsUpdate:  mu: -0.175800000  nElectrons: 80.170952
	SubspaceRotationAdjust: set factor to 0.0764
ElecMinimize: Iter:   9  G: -431.089052324155830  |grad|_K:  1.418e-06  alpha:  5.795e-01  linmin:  5.526e-05  t[s]:     68.16
	Linear fluid (dielectric constant: 78.4, screening length: 5.74355 Bohr) occupying 0.616878 of unit cell:	Completed after 14 iterations at t[s]:     70.12
	Linear fluid (dielectric constant: 78.4, screening length: 5.74355 Bohr) occupying 0.617026 of unit cell:	Completed after 15 iterations at t[s]:     71.95
	FillingsUpdate:  mu: -0.175800000  nElectrons: 80.170714
	SubspaceRotationAdjust: set factor to 0.0514
ElecMinimize: Iter:  10  G: -431.089054542456552  |grad|_K:  2.079e-06  alpha:  2.610e-01  linmin: -2.699e-05  t[s]:     73.60
	Linear fluid (dielectric constant: 78.4, screening length: 5.74355 Bohr) occupying 0.617684 of unit cell:	Completed after 15 iterations at t[s]:     75.68
	Linear fluid (dielectric constant: 78.4, screening length: 5.74355 Bohr) occupying 0.617537 of unit cell:	Completed after 14 iterations at t[s]:     77.47
	FillingsUpdate:  mu: -0.175800000  nElectrons: 80.173687
	SubspaceRotationAdjust: set factor to 0.0296
ElecMinimize: Iter:  11  G: -431.089058221072037  |grad|_K:  9.910e-07  alpha:  2.021e-01  linmin:  1.406e-05  t[s]:     79.14
	Linear fluid (dielectric constant: 78.4, screening length: 5.74355 Bohr) occupying 0.617488 of unit cell:	Completed after 13 iterations at t[s]:     81.02
	Linear fluid (dielectric constant: 78.4, screening length: 5.74355 Bohr) occupying 0.617434 of unit cell:	Completed after 14 iterations at t[s]:     83.18
	FillingsUpdate:  mu: -0.175800000  nElectrons: 80.173489
	SubspaceRotationAdjust: set factor to 0.0209
ElecMinimize: Iter:  12  G: -431.089059973232054  |grad|_K:  9.028e-07  alpha:  4.248e-01  linmin:  2.505e-05  t[s]:     85.11
	Linear fluid (dielectric constant: 78.4, screening length: 5.74355 Bohr) occupying 0.617739 of unit cell:	Completed after 15 iterations at t[s]:     87.29
	Linear fluid (dielectric constant: 78.4, screening length: 5.74355 Bohr) occupying 0.617618 of unit cell:	Completed after 14 iterations at t[s]:     89.10
	FillingsUpdate:  mu: -0.175800000  nElectrons: 80.174508
	SubspaceRotationAdjust: set factor to 0.0148
	SubspaceRotationAdjust: resetting CG because factor has changed by 0.117775
	Linear fluid (dielectric constant: 78.4, screening length: 5.74355 Bohr) occupying 0.617618 of unit cell:	Completed after 0 iterations at t[s]:     91.45
ElecMinimize: 	State modified externally: resetting search direction.
ElecMinimize: Iter:  13  G: -431.089060846828374  |grad|_K:  5.120e-07  alpha:  2.553e-01
	Linear fluid (dielectric constant: 78.4, screening length: 5.74355 Bohr) occupying 0.617585 of unit cell:	Completed after 12 iterations at t[s]:     95.11
	Linear fluid (dielectric constant: 78.4, screening length: 5.74355 Bohr) occupying 0.617578 of unit cell:	Completed after 8 iterations at t[s]:     97.02
	FillingsUpdate:  mu: -0.175800000  nElectrons: 80.174317
	SubspaceRotationAdjust: set factor to 0.0196
ElecMinimize: Iter:  14  G: -431.089061192707277  |grad|_K:  2.659e-07  alpha:  3.139e-01  linmin: -4.827e-04  t[s]:     98.99
	Linear fluid (dielectric constant: 78.4, screening length: 5.74355 Bohr) occupying 0.617598 of unit cell:	Completed after 11 iterations at t[s]:    101.01
	Linear fluid (dielectric constant: 78.4, screening length: 5.74355 Bohr) occupying 0.617619 of unit cell:	Completed after 11 iterations at t[s]:    102.89
	FillingsUpdate:  mu: -0.175800000  nElectrons: 80.174516
	SubspaceRotationAdjust: set factor to 0.0216
ElecMinimize: Iter:  15  G: -431.089061383230899  |grad|_K:  2.220e-07  alpha:  6.435e-01  linmin:  9.787e-04  t[s]:    104.69
	Linear fluid (dielectric constant: 78.4, screening length: 5.74355 Bohr) occupying 0.617593 of unit cell:	Completed after 12 iterations at t[s]:    106.52
	Linear fluid (dielectric constant: 78.4, screening length: 5.74355 Bohr) occupying 0.617594 of unit cell:	Completed after 0 iterations at t[s]:    107.75
	FillingsUpdate:  mu: -0.175800000  nElectrons: 80.174403
	SubspaceRotationAdjust: set factor to 0.0257
ElecMinimize: Iter:  16  G: -431.089061511751709  |grad|_K:  2.127e-07  alpha:  6.240e-01  linmin:  4.029e-04  t[s]:    109.38
	Linear fluid (dielectric constant: 78.4, screening length: 5.74355 Bohr) occupying 0.617603 of unit cell:	Completed after 11 iterations at t[s]:    111.21
	Linear fluid (dielectric constant: 78.4, screening length: 5.74355 Bohr) occupying 0.617603 of unit cell:	Completed after 0 iterations at t[s]:    112.45
	FillingsUpdate:  mu: -0.175800000  nElectrons: 80.174465
	SubspaceRotationAdjust: set factor to 0.0231
ElecMinimize: Iter:  17  G: -431.089061637302336  |grad|_K:  2.322e-07  alpha:  6.617e-01  linmin: -1.845e-03  t[s]:    114.14
	Linear fluid (dielectric constant: 78.4, screening length: 5.74355 Bohr) occupying 0.617486 of unit cell:	Completed after 11 iterations at t[s]:    115.91
	Linear fluid (dielectric constant: 78.4, screening length: 5.74355 Bohr) occupying 0.617502 of unit cell:	Completed after 8 iterations at t[s]:    117.46
	FillingsUpdate:  mu: -0.175800000  nElectrons: 80.174021
	SubspaceRotationAdjust: set factor to 0.0201
ElecMinimize: Iter:  18  G: -431.089061770684054  |grad|_K:  2.410e-07  alpha:  5.692e-01  linmin:  5.880e-04  t[s]:    119.09
	Linear fluid (dielectric constant: 78.4, screening length: 5.74355 Bohr) occupying 0.617462 of unit cell:	Completed after 12 iterations at t[s]:    120.85
	Linear fluid (dielectric constant: 78.4, screening length: 5.74355 Bohr) occupying 0.617464 of unit cell:	Completed after 2 iterations at t[s]:    122.19
	FillingsUpdate:  mu: -0.175800000  nElectrons: 80.173890
	SubspaceRotationAdjust: set factor to 0.0186
ElecMinimize: Iter:  19  G: -431.089061900228785  |grad|_K:  1.974e-07  alpha:  5.374e-01  linmin:  5.506e-04  t[s]:    123.80
	Linear fluid (dielectric constant: 78.4, screening length: 5.74355 Bohr) occupying 0.617404 of unit cell:	Completed after 11 iterations at t[s]:    125.49
	Linear fluid (dielectric constant: 78.4, screening length: 5.74355 Bohr) occupying 0.617398 of unit cell:	Completed after 2 iterations at t[s]:    126.86
	FillingsUpdate:  mu: -0.175800000  nElectrons: 80.173622
	SubspaceRotationAdjust: set factor to 0.0204
ElecMinimize: Iter:  20  G: -431.089061994924691  |grad|_K:  1.474e-07  alpha:  5.839e-01  linmin: -8.911e-04  t[s]:    128.49
	Linear fluid (dielectric constant: 78.4, screening length: 5.74355 Bohr) occupying 0.617406 of unit cell:	Completed after 6 iterations at t[s]:    130.05
	Linear fluid (dielectric constant: 78.4, screening length: 5.74355 Bohr) occupying 0.617409 of unit cell:	Completed after 3 iterations at t[s]:    131.44
	FillingsUpdate:  mu: -0.175800000  nElectrons: 80.173712
	SubspaceRotationAdjust: set factor to 0.0248
ElecMinimize: Iter:  21  G: -431.089062066536144  |grad|_K:  1.762e-07  alpha:  7.719e-01  linmin: -8.599e-05  t[s]:    133.06
	Linear fluid (dielectric constant: 78.4, screening length: 5.74355 Bohr) occupying 0.617441 of unit cell:	Completed after 4 iterations at t[s]:    134.55
	Linear fluid (dielectric constant: 78.4, screening length: 5.74355 Bohr) occupying 0.617448 of unit cell:	Completed after 5 iterations at t[s]:    136.01
	FillingsUpdate:  mu: -0.175800000  nElectrons: 80.173970
	SubspaceRotationAdjust: set factor to 0.0293
ElecMinimize: Iter:  22  G: -431.089062187833861  |grad|_K:  1.931e-07  alpha:  9.296e-01  linmin:  8.545e-05  t[s]:    137.63
	Linear fluid (dielectric constant: 78.4, screening length: 5.74355 Bohr) occupying 0.617488 of unit cell:	Completed after 8 iterations at t[s]:    139.25
	Linear fluid (dielectric constant: 78.4, screening length: 5.74355 Bohr) occupying 0.617481 of unit cell:	Completed after 2 iterations at t[s]:    140.58
	FillingsUpdate:  mu: -0.175800000  nElectrons: 80.174199
	SubspaceRotationAdjust: set factor to 0.0326
ElecMinimize: Iter:  23  G: -431.089062306869266  |grad|_K:  2.207e-07  alpha:  7.612e-01  linmin:  1.032e-04  t[s]:    142.19
	Linear fluid (dielectric constant: 78.4, screening length: 5.74355 Bohr) occupying 0.617596 of unit cell:	Completed after 12 iterations at t[s]:    143.95
	Linear fluid (dielectric constant: 78.4, screening length: 5.74355 Bohr) occupying 0.617568 of unit cell:	Completed after 8 iterations at t[s]:    145.48
	FillingsUpdate:  mu: -0.175800000  nElectrons: 80.174691
	SubspaceRotationAdjust: set factor to 0.026
ElecMinimize: Iter:  24  G: -431.089062424132749  |grad|_K:  2.799e-07  alpha:  5.766e-01  linmin:  4.500e-05  t[s]:    147.10
	Linear fluid (dielectric constant: 78.4, screening length: 5.74355 Bohr) occupying 0.617547 of unit cell:	Completed after 12 iterations at t[s]:    148.86
	Linear fluid (dielectric constant: 78.4, screening length: 5.74355 Bohr) occupying 0.617557 of unit cell:	Completed after 12 iterations at t[s]:    150.53
	FillingsUpdate:  mu: -0.175800000  nElectrons: 80.174708
	SubspaceRotationAdjust: set factor to 0.0209
ElecMinimize: Iter:  25  G: -431.089062523293364  |grad|_K:  2.118e-07  alpha:  3.018e-01  linmin:  8.480e-06  t[s]:    152.13
	Linear fluid (dielectric constant: 78.4, screening length: 5.74355 Bohr) occupying 0.617575 of unit cell:	Completed after 2 iterations at t[s]:    153.53
	Linear fluid (dielectric constant: 78.4, screening length: 5.74355 Bohr) occupying 0.617593 of unit cell:	Completed after 8 iterations at t[s]:    155.09
	FillingsUpdate:  mu: -0.175800000  nElectrons: 80.174966
	SubspaceRotationAdjust: set factor to 0.0269
ElecMinimize: Iter:  26  G: -431.089062633864046  |grad|_K:  1.724e-07  alpha:  5.946e-01  linmin:  3.402e-04  t[s]:    156.71
	Linear fluid (dielectric constant: 78.4, screening length: 5.74355 Bohr) occupying 0.617622 of unit cell:	Completed after 11 iterations at t[s]:    158.45
	Linear fluid (dielectric constant: 78.4, screening length: 5.74355 Bohr) occupying 0.617622 of unit cell:	Completed after 0 iterations at t[s]:    159.71
	FillingsUpdate:  mu: -0.175800000  nElectrons: 80.175168
	SubspaceRotationAdjust: set factor to 0.0275
ElecMinimize: Iter:  27  G: -431.089062707571998  |grad|_K:  1.739e-07  alpha:  5.984e-01  linmin: -1.142e-04  t[s]:    161.40
	Linear fluid (dielectric constant: 78.4, screening length: 5.74355 Bohr) occupying 0.617579 of unit cell:	Completed after 12 iterations at t[s]:    163.17
	Linear fluid (dielectric constant: 78.4, screening length: 5.74355 Bohr) occupying 0.617594 of unit cell:	Completed after 11 iterations at t[s]:    164.80
	FillingsUpdate:  mu: -0.175800000  nElectrons: 80.175076
	SubspaceRotationAdjust: set factor to 0.0247
ElecMinimize: Iter:  28  G: -431.089062757669296  |grad|_K:  1.767e-07  alpha:  3.933e-01  linmin:  1.274e-05  t[s]:    166.42
	Linear fluid (dielectric constant: 78.4, screening length: 5.74355 Bohr) occupying 0.617607 of unit cell:	Completed after 11 iterations at t[s]:    168.15
	Linear fluid (dielectric constant: 78.4, screening length: 5.74355 Bohr) occupying 0.617610 of unit cell:	Completed after 2 iterations at t[s]:    169.47
	FillingsUpdate:  mu: -0.175800000  nElectrons: 80.175208
	SubspaceRotationAdjust: set factor to 0.0297
ElecMinimize: Iter:  29  G: -431.089062818199068  |grad|_K:  1.427e-07  alpha:  4.612e-01  linmin: -2.378e-04  t[s]:    171.09
	Linear fluid (dielectric constant: 78.4, screening length: 5.74355 Bohr) occupying 0.617610 of unit cell:	Completed after 5 iterations at t[s]:    172.64
	Linear fluid (dielectric constant: 78.4, screening length: 5.74355 Bohr) occupying 0.617610 of unit cell:	Completed after 2 iterations at t[s]:    173.96
	FillingsUpdate:  mu: -0.175800000  nElectrons: 80.175256
	SubspaceRotationAdjust: set factor to 0.0336
ElecMinimize: Iter:  30  G: -431.089062864650600  |grad|_K:  1.233e-07  alpha:  5.375e-01  linmin: -3.784e-04  t[s]:    175.58
	Linear fluid (dielectric constant: 78.4, screening length: 5.74355 Bohr) occupying 0.617575 of unit cell:	Completed after 12 iterations at t[s]:    177.32
	Linear fluid (dielectric constant: 78.4, screening length: 5.74355 Bohr) occupying 0.617586 of unit cell:	Completed after 6 iterations at t[s]:    178.78
	FillingsUpdate:  mu: -0.175800000  nElectrons: 80.175163
	SubspaceRotationAdjust: set factor to 0.0274
ElecMinimize: Iter:  31  G: -431.089062889439447  |grad|_K:  1.236e-07  alpha:  3.717e-01  linmin:  8.690e-04  t[s]:    180.45
	Linear fluid (dielectric constant: 78.4, screening length: 5.74355 Bohr) occupying 0.617606 of unit cell:	Completed after 11 iterations at t[s]:    182.22
	Linear fluid (dielectric constant: 78.4, screening length: 5.74355 Bohr) occupying 0.617600 of unit cell:	Completed after 4 iterations at t[s]:    183.62
	FillingsUpdate:  mu: -0.175800000  nElectrons: 80.175253
	SubspaceRotationAdjust: set factor to 0.02
ElecMinimize: Iter:  32  G: -431.089062906469621  |grad|_K:  7.200e-08  alpha:  2.746e-01  linmin:  3.486e-04  t[s]:    185.23
	Linear fluid (dielectric constant: 78.4, screening length: 5.74355 Bohr) occupying 0.617599 of unit cell:	Completed after 2 iterations at t[s]:    186.65
	Linear fluid (dielectric constant: 78.4, screening length: 5.74355 Bohr) occupying 0.617598 of unit cell:	Completed after 0 iterations at t[s]:    187.90
	FillingsUpdate:  mu: -0.175800000  nElectrons: 80.175253
	SubspaceRotationAdjust: set factor to 0.0268
ElecMinimize: Iter:  33  G: -431.089062915973955  |grad|_K:  4.319e-08  alpha:  4.338e-01  linmin: -2.943e-03  t[s]:    189.53
	Linear fluid (dielectric constant: 78.4, screening length: 5.74355 Bohr) occupying 0.617594 of unit cell:	Completed after 7 iterations at t[s]:    191.13
	Linear fluid (dielectric constant: 78.4, screening length: 5.74355 Bohr) occupying 0.617595 of unit cell:	Completed after 0 iterations at t[s]:    192.35
	FillingsUpdate:  mu: -0.175800000  nElectrons: 80.175241
	SubspaceRotationAdjust: set factor to 0.0184
ElecMinimize: Iter:  34  G: -431.089062918260879  |grad|_K:  5.722e-08  alpha:  3.062e-01  linmin: -6.654e-04  t[s]:    193.97
ElecMinimize: Converged (|Delta G|<1.000000e-08 for 2 iters).
Setting wave functions to eigenvectors of Hamiltonian

# Ionic positions in lattice coordinates:
ion Pt   0.333333333333333  -0.333333333333333  -0.237676000000000 1
ion Pt  -0.333333333333333   0.333333333333333  -0.118838000000000 1
ion Pt   0.000000000000000   0.000000000000000   0.000000000000000 1
ion Pt   0.333333333333333  -0.333333333333333   0.118838000000000 1
ion Pt  -0.333333333333333   0.333333333333333   0.237676000000000 1


# Forces in Lattice coordinates:
force Pt   0.000000000000000  -0.000000000000000  -0.061213211193848 1
force Pt   0.000000000000000   0.000000000000000   0.090061358367243 1
force Pt   0.000000000000000   0.000000000000000  -0.000000000000000 1
force Pt  -0.000000000000000  -0.000000000000000  -0.090061358366789 1
force Pt  -0.000000000000000  -0.000000000000000   0.061213211193848 1

# Energy components:
   A_diel =       -0.0594238252051879
   Eewald =     4702.9680318706023172
       EH =     5113.6369683921484466
     Eloc =   -10338.4722047429968370
      Enl =       -5.2756932136472621
      Exc =     -141.6057997292709842
 Exc_core =       81.2082896017070937
       KE =      142.4801619013089748
  MuShift =       -0.0081256237275837
-------------------------------------
     Etot =     -445.1277953690810705
       TS =        0.0560749696778852
-------------------------------------
        F =     -445.1838703387589362
      muN =      -14.0948074204980767
-------------------------------------
        G =     -431.0890629182608791

IonicMinimize: Iter:   0  G: -431.089062918260879  |grad|_K:  1.105e-03  t[s]:    194.74
IonicMinimize: None of the convergence criteria satisfied after 0 iterations.

#--- Lowdin population analysis ---
# oxidation-state Pt -0.078 +0.009 +0.014 +0.009 -0.078


Dumping 'common.fillings' ... done
Dumping 'common.wfns' ... done
Dumping 'common.fluidState' ... done
Dumping 'common.eigenvals' ... done
Dumping 'common.nbound' ... done
End date and time: Tue Mar 19 06:53:29 2019  (Duration: 0-0:03:15.09)
Done!
