
*************** JDFTx 1.4.2  ***************

Start date and time: Tue Mar 19 06:33:58 2019
Executable jdftx with command-line: -i Charged.in
Running on hosts (process indices):  Juans-MBP.lan1 (0-3)
Divided in process groups (process indices):  0 (0)  1 (1)  2 (2)  3 (3)
Resource initialization completed at t[s]:      0.00
Run totals: 4 processes, 12 threads, 0 GPUs


Input parsed successfully to the following command list (including defaults):

basis kpoint-dependent
coords-type Lattice
core-overlap-check vector
coulomb-interaction Slab 001
coulomb-truncation-embed 0 0 0
davidson-band-ratio 1.1
dump End State BoundCharge
dump-name common.$VAR
elec-cutoff 20 100
elec-eigen-algo Davidson
elec-ex-corr gga-PBEsol
elec-smearing Fermi 0.01
electronic-minimize  \
	dirUpdateScheme      FletcherReeves \
	linminMethod         DirUpdateRecommended \
	nIterations          200 \
	history              15 \
	knormThreshold       0 \
	energyDiffThreshold  1e-08 \
	nEnergyDiff          2 \
	alphaTstart          1 \
	alphaTmin            1e-10 \
	updateTestStepSize   yes \
	alphaTreduceFactor   0.1 \
	alphaTincreaseFactor 3 \
	nAlphaAdjustMax      3 \
	wolfeEnergy          0.0001 \
	wolfeGradient        0.9 \
	fdTest               no
exchange-regularization WignerSeitzTruncated
fluid LinearPCM 298.000000 1.013250
fluid-anion F- 1 MeanFieldLJ \
	epsBulk 1 \
	pMol 0 \
	epsInf 1 \
	Pvap 0 \
	sigmaBulk 0 \
	Rvdw 2.24877 \
	Res 0
fluid-cation Na+ 1 MeanFieldLJ \
	epsBulk 1 \
	pMol 0 \
	epsInf 1 \
	Pvap 0 \
	sigmaBulk 0 \
	Rvdw 2.19208 \
	Res 0
fluid-ex-corr lda-TF lda-PZ
fluid-gummel-loop 10 1.000000e-05
fluid-minimize  \
	dirUpdateScheme      PolakRibiere \
	linminMethod         DirUpdateRecommended \
	nIterations          400 \
	history              15 \
	knormThreshold       1e-11 \
	energyDiffThreshold  0 \
	nEnergyDiff          2 \
	alphaTstart          1 \
	alphaTmin            1e-10 \
	updateTestStepSize   yes \
	alphaTreduceFactor   0.1 \
	alphaTincreaseFactor 3 \
	nAlphaAdjustMax      6 \
	wolfeEnergy          0.0001 \
	wolfeGradient        0.9 \
	fdTest               no
fluid-solvent H2O 55.338 ScalarEOS \
	epsBulk 78.4 \
	pMol 0.92466 \
	epsInf 1.77 \
	Pvap 1.06736e-10 \
	sigmaBulk 4.62e-05 \
	Rvdw 2.61727 \
	Res 1.42
forces-output-coords Positions
initial-state common.$VAR
ion Pt   0.333333000000000  -0.333333000000000  -0.237676000000000 1
ion Pt  -0.333333000000000   0.333333000000000  -0.118838000000000 1
ion Pt   0.000000000000000   0.000000000000000   0.000000000000000 1
ion Pt   0.333333000000000  -0.333333000000000   0.118838000000000 1
ion Pt  -0.333333000000000   0.333333000000000   0.237676000000000 1
ion-species GBRV/$ID_pbesol.uspp
ion-width Ecut
ionic-minimize  \
	dirUpdateScheme      L-BFGS \
	linminMethod         DirUpdateRecommended \
	nIterations          0 \
	history              15 \
	knormThreshold       0.0001 \
	energyDiffThreshold  1e-06 \
	nEnergyDiff          2 \
	alphaTstart          1 \
	alphaTmin            1e-10 \
	updateTestStepSize   yes \
	alphaTreduceFactor   0.1 \
	alphaTincreaseFactor 3 \
	nAlphaAdjustMax      3 \
	wolfeEnergy          0.0001 \
	wolfeGradient        0.9 \
	fdTest               no
kpoint   0.000000000000   0.000000000000   0.000000000000  1.00000000000000
kpoint-folding 12 12 1 
latt-move-scale 1 1 1
latt-scale 1 1 1 
lattice Hexagonal 5.23966 36
lattice-minimize  \
	dirUpdateScheme      L-BFGS \
	linminMethod         DirUpdateRecommended \
	nIterations          0 \
	history              15 \
	knormThreshold       0 \
	energyDiffThreshold  1e-06 \
	nEnergyDiff          2 \
	alphaTstart          1 \
	alphaTmin            1e-10 \
	updateTestStepSize   yes \
	alphaTreduceFactor   0.1 \
	alphaTincreaseFactor 3 \
	nAlphaAdjustMax      3 \
	wolfeEnergy          0.0001 \
	wolfeGradient        0.9 \
	fdTest               no
lcao-params -1 1e-06 0.01
pcm-variant CANDLE
spintype no-spin
subspace-rotation-factor 1 yes
symmetries automatic
symmetry-threshold 0.0001
target-mu -0.1978 no




---------- Setting up symmetries ----------

Found 24 point-group symmetries of the bravais lattice
Found 12 space-group symmetries with basis
Applied RMS atom displacement 2.70575e-06 bohrs to make symmetries exact.

---------- Initializing the Grid ----------
R = 
[    5.23966   -2.61983          0  ]
[          0    4.53768          0  ]
[          0          0         36  ]
unit cell volume = 855.932
G =
[    1.19916   0.692335         -0  ]
[          0    1.38467          0  ]
[          0         -0   0.174533  ]
Minimum fftbox size, Smin = [  24  24  164  ]
Chosen fftbox size, S = [  24  24  168  ]

---------- Initializing tighter grid for wavefunction operations ----------
R = 
[    5.23966   -2.61983          0  ]
[          0    4.53768          0  ]
[          0          0         36  ]
unit cell volume = 855.932
G =
[    1.19916   0.692335         -0  ]
[          0    1.38467          0  ]
[          0         -0   0.174533  ]
Minimum fftbox size, Smin = [  24  24  148  ]
Chosen fftbox size, S = [  24  24  150  ]

---------- Exchange Correlation functional ----------
Initalized PBEsol GGA exchange.
Initalized PBEsol GGA correlation.

---------- Setting up pseudopotentials ----------
Width of ionic core gaussian charges (only for fluid interactions / plotting) set to 0.397384

Reading pseudopotential file '/Users/juanmendezvalderrama/Documents/JDFTX/build/pseudopotentials/GBRV/pt_pbesol.uspp':
  Title: Pt.  Created by USPP 7.3.6 on 22-9-15
  Reference state energy: -104.899005.  16 valence electrons in orbitals:
    |510>  occupation: 6  eigenvalue: -2.158847
    |520>  occupation: 9.5  eigenvalue: -0.336311
    |600>  occupation: 0  eigenvalue: -0.320324
    |610>  occupation: 0  eigenvalue: -0.119800
  lMax: 2  lLocal: 3  QijEcut: 5.5
  6 projectors sampled on a log grid with 745 points:
    l: 0  eig: -0.320324  rCut: 2.45
    l: 0  eig: 1.500000  rCut: 2.45
    l: 1  eig: -2.158847  rCut: 1.6
    l: 1  eig: -0.119800  rCut: 1.6
    l: 2  eig: -0.500000  rCut: 1.6
    l: 2  eig: -0.336311  rCut: 1.6
  Partial core density with radius 1.1
  Transforming core density to a uniform radial grid of dG=0.02 with 1620 points.
  Transforming local potential to a uniform radial grid of dG=0.02 with 1620 points.
  Transforming nonlocal projectors to a uniform radial grid of dG=0.02 with 432 points.
  Transforming density augmentations to a uniform radial grid of dG=0.02 with 1620 points.
  Transforming atomic orbitals to a uniform radial grid of dG=0.02 with 432 points.
  Core radius for overlap checks: 2.45 bohrs.

Initialized 1 species with 5 total atoms.

Folded 1 k-points by 12x12x1 to 144 k-points.

---------- Setting up k-points, bands, fillings ----------
Reduced to 19 k-points under symmetry. 
Computing the number of bands and number of electrons
Reading initial fillings from file common.fillings.
nElectrons:  79.999865   nBands: 60   nStates: 19

----- Setting up reduced wavefunction bases (one per k-point) -----
average nbasis = 3657.132 , ideal nbasis = 3656.607

---------- Setting up coulomb interaction ----------
Fluid mode embedding: using embedded box, but periodic Coulomb kernel.
(Fluid response is responsible for (approximate) separation between periodic images.)
Setting up double-sized grid for truncated Coulomb potentials:
R = 
[    5.23966   -2.61983          0  ]
[          0    4.53768          0  ]
[          0          0         72  ]
unit cell volume = 1711.86
G =
[    1.19916   0.692335         -0  ]
[          0    1.38467          0  ]
[          0         -0  0.0872665  ]
Chosen fftbox size, S = [  24  24  336  ]
Integer grid location selected as the embedding center:
   Grid: [  0  0  0  ]
   Lattice: [  0  0  0  ]
   Cartesian: [  0  0  0  ]
Constructing Wigner-Seitz cell: 8 faces (6 quadrilaterals, 2 hexagons)
Range-separation parameter for embedded mesh potentials due to point charges: 0.589462 bohrs.

Initializing van der Waals corrections
	NOTE: vdW corrections apply only for interactions with fluid.
	Pt:  C6:  815.23 Eh-a0^6  R0: 3.326 a0 (WARNING: beyond Grimme's data set)

---------- Setting up ewald sum ----------
Optimum gaussian width for ewald sums = 3.649540 bohr.
Real space sum over 1805 unit cells with max indices [  9  9  2  ]
Reciprocal space sum over 5103 terms with max indices [  4  4  31  ]

---------- Allocating electronic variables ----------
Initializing wave functions:  reading from 'common.wfns'
----- createFluidSolver() ----- (Fluid-side solver setup)
   Initializing fluid molecule 'H2O'
     Initializing site 'O'
       Electron density: proportional to exp(-r/0.36935)*erfc((r-0.51523)/0.36823) with norm 6.826
       Charge density: gaussian nuclear width 0.478731 with net site charge 0.826
       Polarizability: cuspless exponential with width 0.32 and norm 3.73
       Hard sphere radius: 2.57003 bohrs
       Positions in reference frame:
         [ +0.000000 +0.000000 +0.000000 ]
     Initializing site 'H'
       Electron density: proportional to exp(-r/0.34641)*erfc((r-0)/0.390882) with norm 0.587
       Charge density: gaussian nuclear width 0.377945 with net site charge -0.413
       Polarizability: cuspless exponential with width 0.39 and norm 3.3
       Positions in reference frame:
         [ +0.000000 -1.441945 +1.122523 ]
         [ +0.000000 +1.441945 +1.122523 ]
     Net charge: 0   dipole magnitude: 0.927204
     Initializing spherical shell mfKernel with radius 2.61727 Bohr
     deltaS corrections:
       site 'O': -7.54299
       site 'H': -6.83917
   Initializing fluid molecule 'Na+'
     Initializing site 'Na'
       Electron density: proportional to exp(-r/0.19682)*erfc((r-0.71491)/0.41314) with norm 8.1383
       Charge density: gaussian nuclear width 0.365347 with net site charge -1
       Hard sphere radius: 1.86327 bohrs
       Positions in reference frame:
         [ +0.000000 +0.000000 +0.000000 ]
     Net charge: -1   dipole magnitude: 0
     Initializing gaussian mfKernel with width: 1.55004 Bohr
     deltaS corrections:
       site 'Na': -22.3555
   Initializing fluid molecule 'F-'
     Initializing site 'F'
       Electron density: proportional to exp(-r/0.38886)*erfc((r-0)/0.438782) with norm 8
       Charge density: gaussian nuclear width 0.374796 with net site charge 1
       Hard sphere radius: 2.39995 bohrs
       Positions in reference frame:
         [ +0.000000 +0.000000 +0.000000 ]
     Net charge: 1   dipole magnitude: 0
     Initializing gaussian mfKernel with width: 1.59012 Bohr
     deltaS corrections:
       site 'F': -9.04335

Correction to mu due to finite nuclear width = -0.0463682
   Cavity determined by nc: 0.00142 and sigma: 0.707107
   Nonlocal vdW cavity from gaussian model electron density with norm = 8 and sigma = 0.993594 bohr
   Charge asymmetry in cavity with sensitivity pCavity = 36.5 e-bohr/Eh
   Electrostatic cavity expanded by eta = 1.46 bohrs
   Weighted density cavitation model constrained by Nbulk: 0.0049383 bohr^-3, Pvap: 3.14029 kPa, Rvdw: 2.61727 bohr and sigmaBulk: 4.62e-05 Eh/bohr^2 at T: 298 K.
   Weighted density dispersion model using vdW pair potentials with single solvent site with sqrtC6eff: 0.77 SI.
Reading fluid state from 'common.fluidState'


---- Citations for features of the code used in this run ----

   Software package:
      R. Sundararaman, K. Letchworth-Weaver, K.A. Schwarz, D. Gunceler, Y. Ozhabes and T.A. Arias, 'JDFTx: software for joint density-functional theory', SoftwareX 6, 278 (2017)

   gga-PBEsol exchange-correlation functional:
      J.P. Perdew et al., Phys. Rev. Lett. 100, 136406 (2008)

   Pseudopotentials:
      KF Garrity, JW Bennett, KM Rabe and D Vanderbilt, Comput. Mater. Sci. 81, 446 (2014)

   Truncated Coulomb potentials:
      R. Sundararaman and T.A. Arias, Phys. Rev. B 87, 165122 (2013)

   Van der Waals correction pair-potentials:
      S. Grimme, J. Comput. Chem. 27, 1787 (2006)

   Charge-asymmetric nonlocally-determined local-electric (CANDLE) solvation model:
      R. Sundararaman and W.A. Goddard III, J. Chem. Phys. 142, 064107 (2015)

   Total energy minimization with Auxiliary Hamiltonian:
      C. Freysoldt, S. Boeck, and J. Neugebauer, Phys. Rev. B 79, 241103(R) (2009)

   Grand-canonical (fixed-potential) DFT:
      R. Sundararaman, W. A. Goddard III and T. A. Arias, J. Chem. Phys. 146, 114104 (2017)

This list may not be complete. Please suggest additional citations or
report any other bugs at https://github.com/shankar1729/jdftx/issues

Initialization completed successfully at t[s]:      2.60

Shifting auxilliary hamiltonian by 0.003703 to set nElectrons=79.999865
	Linear fluid (dielectric constant: 78.4, screening length: 5.74355 Bohr) occupying 0.596144 of unit cell:	Completed after 11 iterations at t[s]:      4.32

-------- Electronic minimization -----------
	Linear fluid (dielectric constant: 78.4, screening length: 5.74355 Bohr) occupying 0.596144 of unit cell:	Completed after 0 iterations at t[s]:      5.10
	FillingsUpdate:  mu: -0.197800000  nElectrons: 79.999865
ElecMinimize: Iter:   0  G: -429.327246479323946  |grad|_K:  1.351e-05  alpha:  1.000e+00
	Linear fluid (dielectric constant: 78.4, screening length: 5.74355 Bohr) occupying 0.646554 of unit cell:	Completed after 33 iterations at t[s]:      8.54
	Linear fluid (dielectric constant: 78.4, screening length: 5.74355 Bohr) occupying 0.596141 of unit cell:	Completed after 24 iterations at t[s]:     10.26
	FillingsUpdate:  mu: -0.197800000  nElectrons: 80.002929
	SubspaceRotationAdjust: set factor to 0.508
ElecMinimize: Iter:   1  G: -429.327249070538414  |grad|_K:  9.958e-06  alpha:  5.900e-03  linmin:  1.132e-01  t[s]:     11.55
	Linear fluid (dielectric constant: 78.4, screening length: 5.74355 Bohr) occupying 0.596136 of unit cell:	Completed after 12 iterations at t[s]:     12.91
ElecMinimize: 	Predicted alpha/alphaT>3.000000, increasing alphaT to 1.770023e-02.
	Linear fluid (dielectric constant: 78.4, screening length: 5.74355 Bohr) occupying 0.596127 of unit cell:	Completed after 12 iterations at t[s]:     14.26
	Linear fluid (dielectric constant: 78.4, screening length: 5.74355 Bohr) occupying 0.596124 of unit cell:	Completed after 11 iterations at t[s]:     15.60
	FillingsUpdate:  mu: -0.197800000  nElectrons: 80.003126
	SubspaceRotationAdjust: set factor to 0.198
ElecMinimize: Iter:   2  G: -429.327254287515132  |grad|_K:  3.203e-06  alpha:  2.181e-02  linmin:  1.534e-04  t[s]:     16.86
	Linear fluid (dielectric constant: 78.4, screening length: 5.74355 Bohr) occupying 0.596118 of unit cell:	Completed after 12 iterations at t[s]:     18.24
	Linear fluid (dielectric constant: 78.4, screening length: 5.74355 Bohr) occupying 0.596120 of unit cell:	Completed after 11 iterations at t[s]:     19.57
	FillingsUpdate:  mu: -0.197800000  nElectrons: 80.004017
	SubspaceRotationAdjust: set factor to 0.105
	SubspaceRotationAdjust: resetting CG because factor has changed by 0.104746
	Linear fluid (dielectric constant: 78.4, screening length: 5.74355 Bohr) occupying 0.596120 of unit cell:	Completed after 0 iterations at t[s]:     21.45
ElecMinimize: 	State modified externally: resetting search direction.
ElecMinimize: Iter:   3  G: -429.327254753491900  |grad|_K:  1.121e-06  alpha:  1.083e-02
	Linear fluid (dielectric constant: 78.4, screening length: 5.74355 Bohr) occupying 0.596120 of unit cell:	Completed after 6 iterations at t[s]:     23.89
ElecMinimize: 	Predicted alpha/alphaT>3.000000, increasing alphaT to 3.250320e-02.
	Linear fluid (dielectric constant: 78.4, screening length: 5.74355 Bohr) occupying 0.596119 of unit cell:	Completed after 9 iterations at t[s]:     25.17
ElecMinimize: 	Predicted alpha/alphaT>3.000000, increasing alphaT to 9.750960e-02.
	Linear fluid (dielectric constant: 78.4, screening length: 5.74355 Bohr) occupying 0.596117 of unit cell:	Completed after 10 iterations at t[s]:     26.46
	Linear fluid (dielectric constant: 78.4, screening length: 5.74355 Bohr) occupying 0.596117 of unit cell:	Completed after 2 iterations at t[s]:     27.53
	FillingsUpdate:  mu: -0.197800000  nElectrons: 80.003477
	SubspaceRotationAdjust: set factor to 0.0582
ElecMinimize: Iter:   4  G: -429.327255281483247  |grad|_K:  1.455e-06  alpha:  9.991e-02  linmin: -1.304e-03  t[s]:     28.84
	Linear fluid (dielectric constant: 78.4, screening length: 5.74355 Bohr) occupying 0.596109 of unit cell:	Completed after 9 iterations at t[s]:     30.13
	Linear fluid (dielectric constant: 78.4, screening length: 5.74355 Bohr) occupying 0.596099 of unit cell:	Completed after 10 iterations at t[s]:     31.42
	FillingsUpdate:  mu: -0.197800000  nElectrons: 80.005051
	SubspaceRotationAdjust: set factor to 0.0612
ElecMinimize: Iter:   5  G: -429.327257228778933  |grad|_K:  7.320e-07  alpha:  2.184e-01  linmin:  9.729e-04  t[s]:     32.71
	Linear fluid (dielectric constant: 78.4, screening length: 5.74355 Bohr) occupying 0.596089 of unit cell:	Completed after 4 iterations at t[s]:     33.85
ElecMinimize: 	Predicted alpha/alphaT>3.000000, increasing alphaT to 6.552566e-01.
	Linear fluid (dielectric constant: 78.4, screening length: 5.74355 Bohr) occupying 0.596070 of unit cell:	Completed after 11 iterations at t[s]:     35.17
	Linear fluid (dielectric constant: 78.4, screening length: 5.74355 Bohr) occupying 0.596069 of unit cell:	Completed after 0 iterations at t[s]:     36.14
	FillingsUpdate:  mu: -0.197800000  nElectrons: 80.006101
	SubspaceRotationAdjust: set factor to 0.0702
ElecMinimize: Iter:   6  G: -429.327258701703443  |grad|_K:  6.511e-07  alpha:  6.607e-01  linmin: -2.169e-04  t[s]:     37.43
	Linear fluid (dielectric constant: 78.4, screening length: 5.74355 Bohr) occupying 0.596027 of unit cell:	Completed after 12 iterations at t[s]:     38.83
	Linear fluid (dielectric constant: 78.4, screening length: 5.74355 Bohr) occupying 0.596035 of unit cell:	Completed after 9 iterations at t[s]:     40.09
	FillingsUpdate:  mu: -0.197800000  nElectrons: 80.007202
	SubspaceRotationAdjust: set factor to 0.04
ElecMinimize: Iter:   7  G: -429.327259662998074  |grad|_K:  1.177e-06  alpha:  5.386e-01  linmin: -9.217e-05  t[s]:     41.40
	Linear fluid (dielectric constant: 78.4, screening length: 5.74355 Bohr) occupying 0.595890 of unit cell:	Completed after 12 iterations at t[s]:     42.78
	Linear fluid (dielectric constant: 78.4, screening length: 5.74355 Bohr) occupying 0.596009 of unit cell:	Completed after 12 iterations at t[s]:     44.14
	FillingsUpdate:  mu: -0.197800000  nElectrons: 80.006829
	SubspaceRotationAdjust: set factor to 0.0262
ElecMinimize: Iter:   8  G: -429.327260225593136  |grad|_K:  6.965e-07  alpha:  9.593e-02  linmin: -1.027e-04  t[s]:     45.47
	Linear fluid (dielectric constant: 78.4, screening length: 5.74355 Bohr) occupying 0.595997 of unit cell:	Completed after 6 iterations at t[s]:     46.66
ElecMinimize: 	Predicted alpha/alphaT>3.000000, increasing alphaT to 2.877858e-01.
	Linear fluid (dielectric constant: 78.4, screening length: 5.74355 Bohr) occupying 0.595975 of unit cell:	Completed after 10 iterations at t[s]:     47.97
	Linear fluid (dielectric constant: 78.4, screening length: 5.74355 Bohr) occupying 0.595939 of unit cell:	Completed after 10 iterations at t[s]:     49.26
	FillingsUpdate:  mu: -0.197800000  nElectrons: 80.006991
	SubspaceRotationAdjust: set factor to 0.0216
ElecMinimize: Iter:   9  G: -429.327261445373551  |grad|_K:  8.422e-07  alpha:  5.967e-01  linmin:  3.284e-05  t[s]:     50.55
	Linear fluid (dielectric constant: 78.4, screening length: 5.74355 Bohr) occupying 0.595839 of unit cell:	Completed after 12 iterations at t[s]:     51.93
	Linear fluid (dielectric constant: 78.4, screening length: 5.74355 Bohr) occupying 0.595897 of unit cell:	Completed after 12 iterations at t[s]:     53.29
	FillingsUpdate:  mu: -0.197800000  nElectrons: 80.008047
	SubspaceRotationAdjust: set factor to 0.0156
ElecMinimize: Iter:  10  G: -429.327262174225723  |grad|_K:  7.146e-07  alpha:  2.461e-01  linmin:  6.069e-05  t[s]:     54.57
	Linear fluid (dielectric constant: 78.4, screening length: 5.74355 Bohr) occupying 0.595864 of unit cell:	Completed after 8 iterations at t[s]:     55.82
	Linear fluid (dielectric constant: 78.4, screening length: 5.74355 Bohr) occupying 0.595838 of unit cell:	Completed after 8 iterations at t[s]:     57.06
	FillingsUpdate:  mu: -0.197800000  nElectrons: 80.008771
	SubspaceRotationAdjust: set factor to 0.021
ElecMinimize: Iter:  11  G: -429.327263133226609  |grad|_K:  6.192e-07  alpha:  4.480e-01  linmin: -9.016e-06  t[s]:     58.33
	Linear fluid (dielectric constant: 78.4, screening length: 5.74355 Bohr) occupying 0.595793 of unit cell:	Completed after 10 iterations at t[s]:     59.64
	Linear fluid (dielectric constant: 78.4, screening length: 5.74355 Bohr) occupying 0.595804 of unit cell:	Completed after 9 iterations at t[s]:     60.90
	FillingsUpdate:  mu: -0.197800000  nElectrons: 80.008645
	SubspaceRotationAdjust: set factor to 0.0163
ElecMinimize: Iter:  12  G: -429.327263675613437  |grad|_K:  4.974e-07  alpha:  3.357e-01  linmin:  8.182e-05  t[s]:     62.17
	Linear fluid (dielectric constant: 78.4, screening length: 5.74355 Bohr) occupying 0.595786 of unit cell:	Completed after 9 iterations at t[s]:     63.48
	Linear fluid (dielectric constant: 78.4, screening length: 5.74355 Bohr) occupying 0.595785 of unit cell:	Completed after 2 iterations at t[s]:     64.56
	FillingsUpdate:  mu: -0.197800000  nElectrons: 80.009016
	SubspaceRotationAdjust: set factor to 0.0204
ElecMinimize: Iter:  13  G: -429.327264054899899  |grad|_K:  3.382e-07  alpha:  3.657e-01  linmin: -1.522e-04  t[s]:     65.90
	Linear fluid (dielectric constant: 78.4, screening length: 5.74355 Bohr) occupying 0.595777 of unit cell:	Completed after 10 iterations at t[s]:     67.23
	Linear fluid (dielectric constant: 78.4, screening length: 5.74355 Bohr) occupying 0.595776 of unit cell:	Completed after 2 iterations at t[s]:     68.32
	FillingsUpdate:  mu: -0.197800000  nElectrons: 80.009312
	SubspaceRotationAdjust: set factor to 0.0193
ElecMinimize: Iter:  14  G: -429.327264248908932  |grad|_K:  2.734e-07  alpha:  4.008e-01  linmin: -1.143e-03  t[s]:     69.71
	Linear fluid (dielectric constant: 78.4, screening length: 5.74355 Bohr) occupying 0.595769 of unit cell:	Completed after 10 iterations at t[s]:     71.15
	Linear fluid (dielectric constant: 78.4, screening length: 5.74355 Bohr) occupying 0.595770 of unit cell:	Completed after 6 iterations at t[s]:     72.38
	FillingsUpdate:  mu: -0.197800000  nElectrons: 80.009178
	SubspaceRotationAdjust: set factor to 0.0165
ElecMinimize: Iter:  15  G: -429.327264354719944  |grad|_K:  2.077e-07  alpha:  3.269e-01  linmin:  9.032e-04  t[s]:     73.69
	Linear fluid (dielectric constant: 78.4, screening length: 5.74355 Bohr) occupying 0.595766 of unit cell:	Completed after 2 iterations at t[s]:     74.77
	Linear fluid (dielectric constant: 78.4, screening length: 5.74355 Bohr) occupying 0.595764 of unit cell:	Completed after 2 iterations at t[s]:     75.83
	FillingsUpdate:  mu: -0.197800000  nElectrons: 80.009249
	SubspaceRotationAdjust: set factor to 0.0222
ElecMinimize: Iter:  16  G: -429.327264445433116  |grad|_K:  1.800e-07  alpha:  5.101e-01  linmin:  4.014e-05  t[s]:     77.13
	Linear fluid (dielectric constant: 78.4, screening length: 5.74355 Bohr) occupying 0.595757 of unit cell:	Completed after 8 iterations at t[s]:     78.40
	Linear fluid (dielectric constant: 78.4, screening length: 5.74355 Bohr) occupying 0.595758 of unit cell:	Completed after 0 iterations at t[s]:     79.39
	FillingsUpdate:  mu: -0.197800000  nElectrons: 80.009446
	SubspaceRotationAdjust: set factor to 0.0193
ElecMinimize: Iter:  17  G: -429.327264510724547  |grad|_K:  2.143e-07  alpha:  4.804e-01  linmin:  5.143e-04  t[s]:     80.69
	Linear fluid (dielectric constant: 78.4, screening length: 5.74355 Bohr) occupying 0.595744 of unit cell:	Completed after 9 iterations at t[s]:     82.03
	Linear fluid (dielectric constant: 78.4, screening length: 5.74355 Bohr) occupying 0.595747 of unit cell:	Completed after 6 iterations at t[s]:     83.23
	FillingsUpdate:  mu: -0.197800000  nElectrons: 80.009354
	SubspaceRotationAdjust: set factor to 0.0181
ElecMinimize: Iter:  18  G: -429.327264580850112  |grad|_K:  1.716e-07  alpha:  3.721e-01  linmin: -2.652e-04  t[s]:     84.53
	Linear fluid (dielectric constant: 78.4, screening length: 5.74355 Bohr) occupying 0.595740 of unit cell:	Completed after 2 iterations at t[s]:     85.62
	Linear fluid (dielectric constant: 78.4, screening length: 5.74355 Bohr) occupying 0.595732 of unit cell:	Completed after 2 iterations at t[s]:     86.69
	FillingsUpdate:  mu: -0.197800000  nElectrons: 80.009387
	SubspaceRotationAdjust: set factor to 0.0207
ElecMinimize: Iter:  19  G: -429.327264673642787  |grad|_K:  1.832e-07  alpha:  7.426e-01  linmin: -3.564e-05  t[s]:     87.99
	Linear fluid (dielectric constant: 78.4, screening length: 5.74355 Bohr) occupying 0.595714 of unit cell:	Completed after 9 iterations at t[s]:     89.29
	Linear fluid (dielectric constant: 78.4, screening length: 5.74355 Bohr) occupying 0.595718 of unit cell:	Completed after 6 iterations at t[s]:     90.49
	FillingsUpdate:  mu: -0.197800000  nElectrons: 80.009595
	SubspaceRotationAdjust: set factor to 0.0184
ElecMinimize: Iter:  20  G: -429.327264757731712  |grad|_K:  1.919e-07  alpha:  5.861e-01  linmin:  6.035e-04  t[s]:     91.81
	Linear fluid (dielectric constant: 78.4, screening length: 5.74355 Bohr) occupying 0.595700 of unit cell:	Completed after 10 iterations at t[s]:     93.15
	Linear fluid (dielectric constant: 78.4, screening length: 5.74355 Bohr) occupying 0.595704 of unit cell:	Completed after 6 iterations at t[s]:     94.31
	FillingsUpdate:  mu: -0.197800000  nElectrons: 80.009495
	SubspaceRotationAdjust: set factor to 0.0143
ElecMinimize: Iter:  21  G: -429.327264823662404  |grad|_K:  1.616e-07  alpha:  4.399e-01  linmin: -3.241e-05  t[s]:     95.64
	Linear fluid (dielectric constant: 78.4, screening length: 5.74355 Bohr) occupying 0.595695 of unit cell:	Completed after 7 iterations at t[s]:     96.90
	Linear fluid (dielectric constant: 78.4, screening length: 5.74355 Bohr) occupying 0.595692 of unit cell:	Completed after 2 iterations at t[s]:     97.98
	FillingsUpdate:  mu: -0.197800000  nElectrons: 80.009627
	SubspaceRotationAdjust: set factor to 0.016
ElecMinimize: Iter:  22  G: -429.327264886671117  |grad|_K:  1.364e-07  alpha:  5.706e-01  linmin: -4.223e-04  t[s]:     99.31
	Linear fluid (dielectric constant: 78.4, screening length: 5.74355 Bohr) occupying 0.595684 of unit cell:	Completed after 7 iterations at t[s]:    100.59
	Linear fluid (dielectric constant: 78.4, screening length: 5.74355 Bohr) occupying 0.595684 of unit cell:	Completed after 0 iterations at t[s]:    101.58
	FillingsUpdate:  mu: -0.197800000  nElectrons: 80.009737
	SubspaceRotationAdjust: set factor to 0.0177
ElecMinimize: Iter:  23  G: -429.327264931834179  |grad|_K:  1.278e-07  alpha:  5.671e-01  linmin: -3.871e-04  t[s]:    102.89
	Linear fluid (dielectric constant: 78.4, screening length: 5.74355 Bohr) occupying 0.595675 of unit cell:	Completed after 8 iterations at t[s]:    104.14
	Linear fluid (dielectric constant: 78.4, screening length: 5.74355 Bohr) occupying 0.595676 of unit cell:	Completed after 1 iterations at t[s]:    105.18
	FillingsUpdate:  mu: -0.197800000  nElectrons: 80.009704
	SubspaceRotationAdjust: set factor to 0.0157
ElecMinimize: Iter:  24  G: -429.327264966985638  |grad|_K:  1.380e-07  alpha:  5.030e-01  linmin:  5.837e-04  t[s]:    106.48
	Linear fluid (dielectric constant: 78.4, screening length: 5.74355 Bohr) occupying 0.595668 of unit cell:	Completed after 10 iterations at t[s]:    107.80
	Linear fluid (dielectric constant: 78.4, screening length: 5.74355 Bohr) occupying 0.595668 of unit cell:	Completed after 0 iterations at t[s]:    108.77
	FillingsUpdate:  mu: -0.197800000  nElectrons: 80.009866
	SubspaceRotationAdjust: set factor to 0.015
ElecMinimize: Iter:  25  G: -429.327265005417132  |grad|_K:  1.301e-07  alpha:  4.954e-01  linmin: -4.300e-04  t[s]:    110.09
	Linear fluid (dielectric constant: 78.4, screening length: 5.74355 Bohr) occupying 0.595660 of unit cell:	Completed after 2 iterations at t[s]:    111.17
	Linear fluid (dielectric constant: 78.4, screening length: 5.74355 Bohr) occupying 0.595657 of unit cell:	Completed after 0 iterations at t[s]:    112.17
	FillingsUpdate:  mu: -0.197800000  nElectrons: 80.009971
	SubspaceRotationAdjust: set factor to 0.0169
ElecMinimize: Iter:  26  G: -429.327265053972837  |grad|_K:  1.363e-07  alpha:  6.653e-01  linmin: -1.162e-04  t[s]:    113.45
	Linear fluid (dielectric constant: 78.4, screening length: 5.74355 Bohr) occupying 0.595643 of unit cell:	Completed after 9 iterations at t[s]:    114.74
	Linear fluid (dielectric constant: 78.4, screening length: 5.74355 Bohr) occupying 0.595643 of unit cell:	Completed after 0 iterations at t[s]:    115.70
	FillingsUpdate:  mu: -0.197800000  nElectrons: 80.010011
	SubspaceRotationAdjust: set factor to 0.0165
ElecMinimize: Iter:  27  G: -429.327265107775361  |grad|_K:  1.431e-07  alpha:  6.834e-01  linmin: -9.558e-05  t[s]:    117.02
	Linear fluid (dielectric constant: 78.4, screening length: 5.74355 Bohr) occupying 0.595626 of unit cell:	Completed after 9 iterations at t[s]:    118.32
	Linear fluid (dielectric constant: 78.4, screening length: 5.74355 Bohr) occupying 0.595629 of unit cell:	Completed after 3 iterations at t[s]:    119.42
	FillingsUpdate:  mu: -0.197800000  nElectrons: 80.010225
	SubspaceRotationAdjust: set factor to 0.0139
	SubspaceRotationAdjust: resetting CG because factor has changed by 0.132648
	Linear fluid (dielectric constant: 78.4, screening length: 5.74355 Bohr) occupying 0.595629 of unit cell:	Completed after 0 iterations at t[s]:    121.33
ElecMinimize: 	State modified externally: resetting search direction.
ElecMinimize: Iter:  28  G: -429.327265158121349  |grad|_K:  1.336e-07  alpha:  5.789e-01
	Linear fluid (dielectric constant: 78.4, screening length: 5.74355 Bohr) occupying 0.595627 of unit cell:	Completed after 9 iterations at t[s]:    123.96
	Linear fluid (dielectric constant: 78.4, screening length: 5.74355 Bohr) occupying 0.595628 of unit cell:	Completed after 6 iterations at t[s]:    125.16
	FillingsUpdate:  mu: -0.197800000  nElectrons: 80.010147
	SubspaceRotationAdjust: set factor to 0.0203
ElecMinimize: Iter:  29  G: -429.327265178667801  |grad|_K:  6.750e-08  alpha:  2.805e-01  linmin:  4.052e-03  t[s]:    126.44
	Linear fluid (dielectric constant: 78.4, screening length: 5.74355 Bohr) occupying 0.595628 of unit cell:	Completed after 5 iterations at t[s]:    127.61
	Linear fluid (dielectric constant: 78.4, screening length: 5.74355 Bohr) occupying 0.595628 of unit cell:	Completed after 0 iterations at t[s]:    128.62
	FillingsUpdate:  mu: -0.197800000  nElectrons: 80.010171
	SubspaceRotationAdjust: set factor to 0.0196
ElecMinimize: Iter:  30  G: -429.327265187624505  |grad|_K:  4.391e-08  alpha:  4.407e-01  linmin: -1.939e-02  t[s]:    129.92
	Linear fluid (dielectric constant: 78.4, screening length: 5.74355 Bohr) occupying 0.595627 of unit cell:	Completed after 6 iterations at t[s]:    131.14
	Linear fluid (dielectric constant: 78.4, screening length: 5.74355 Bohr) occupying 0.595627 of unit cell:	Completed after 0 iterations at t[s]:    132.12
	FillingsUpdate:  mu: -0.197800000  nElectrons: 80.010191
	SubspaceRotationAdjust: set factor to 0.014
ElecMinimize: Iter:  31  G: -429.327265191401466  |grad|_K:  6.139e-08  alpha:  4.089e-01  linmin: -5.250e-03  t[s]:    133.43
ElecMinimize: Converged (|Delta G|<1.000000e-08 for 2 iters).
Setting wave functions to eigenvectors of Hamiltonian

# Ionic positions in lattice coordinates:
ion Pt   0.333333333333333  -0.333333333333333  -0.237676000000000 1
ion Pt  -0.333333333333333   0.333333333333333  -0.118838000000000 1
ion Pt   0.000000000000000   0.000000000000000   0.000000000000000 1
ion Pt   0.333333333333333  -0.333333333333333   0.118838000000000 1
ion Pt  -0.333333333333333   0.333333333333333   0.237676000000000 1


# Forces in Lattice coordinates:
force Pt  -0.000000000000000  -0.000000000000000  -0.034765412255490 1
force Pt   0.000000000000000  -0.000000000000000   0.084308206475831 1
force Pt   0.000000000000000   0.000000000000000   0.000000000000000 1
force Pt  -0.000000000000000  -0.000000000000000  -0.084308206475831 1
force Pt   0.000000000000000   0.000000000000000   0.034765412255490 1

# Energy components:
   A_diel =       -0.0040094565463300
   Eewald =     4702.9680318706023172
       EH =     5103.1987595509554012
     Eloc =   -10328.0849391755400575
      Enl =       -5.2790854804942668
      Exc =     -141.5620660682677681
 Exc_core =       81.2082896017070937
       KE =      142.4590863754972361
  MuShift =       -0.0004725364951052
-------------------------------------
     Etot =     -445.0964053185817306
       TS =        0.0568756447857429
-------------------------------------
        F =     -445.1532809633674788
      muN =      -15.8260157719659986
-------------------------------------
        G =     -429.3272651914014659

IonicMinimize: Iter:   0  G: -429.327265191401466  |grad|_K:  9.250e-04  t[s]:    133.92
IonicMinimize: None of the convergence criteria satisfied after 0 iterations.

#--- Lowdin population analysis ---
# oxidation-state Pt +0.003 +0.013 +0.014 +0.013 +0.003


Dumping 'common.fillings' ... done
Dumping 'common.wfns' ... done
Dumping 'common.fluidState' ... done
Dumping 'common.eigenvals' ... done
Dumping 'common.nbound' ... done
End date and time: Tue Mar 19 06:36:12 2019  (Duration: 0-0:02:14.14)
Done!
