
*************** JDFTx 1.4.2  ***************

Start date and time: Tue Mar 19 06:58:38 2019
Executable jdftx with command-line: -i Charged.in
Running on hosts (process indices):  Juans-MBP.lan1 (0-3)
Divided in process groups (process indices):  0 (0)  1 (1)  2 (2)  3 (3)
Resource initialization completed at t[s]:      0.00
Run totals: 4 processes, 12 threads, 0 GPUs


Input parsed successfully to the following command list (including defaults):

basis kpoint-dependent
coords-type Lattice
core-overlap-check vector
coulomb-interaction Slab 001
coulomb-truncation-embed 0 0 0
davidson-band-ratio 1.1
dump End State BoundCharge
dump-name common.$VAR
elec-cutoff 20 100
elec-eigen-algo Davidson
elec-ex-corr gga-PBEsol
elec-smearing Fermi 0.01
electronic-minimize  \
	dirUpdateScheme      FletcherReeves \
	linminMethod         DirUpdateRecommended \
	nIterations          200 \
	history              15 \
	knormThreshold       0 \
	energyDiffThreshold  1e-08 \
	nEnergyDiff          2 \
	alphaTstart          1 \
	alphaTmin            1e-10 \
	updateTestStepSize   yes \
	alphaTreduceFactor   0.1 \
	alphaTincreaseFactor 3 \
	nAlphaAdjustMax      3 \
	wolfeEnergy          0.0001 \
	wolfeGradient        0.9 \
	fdTest               no
exchange-regularization WignerSeitzTruncated
fluid LinearPCM 298.000000 1.013250
fluid-anion F- 1 MeanFieldLJ \
	epsBulk 1 \
	pMol 0 \
	epsInf 1 \
	Pvap 0 \
	sigmaBulk 0 \
	Rvdw 2.24877 \
	Res 0
fluid-cation Na+ 1 MeanFieldLJ \
	epsBulk 1 \
	pMol 0 \
	epsInf 1 \
	Pvap 0 \
	sigmaBulk 0 \
	Rvdw 2.19208 \
	Res 0
fluid-ex-corr lda-TF lda-PZ
fluid-gummel-loop 10 1.000000e-05
fluid-minimize  \
	dirUpdateScheme      PolakRibiere \
	linminMethod         DirUpdateRecommended \
	nIterations          400 \
	history              15 \
	knormThreshold       1e-11 \
	energyDiffThreshold  0 \
	nEnergyDiff          2 \
	alphaTstart          1 \
	alphaTmin            1e-10 \
	updateTestStepSize   yes \
	alphaTreduceFactor   0.1 \
	alphaTincreaseFactor 3 \
	nAlphaAdjustMax      6 \
	wolfeEnergy          0.0001 \
	wolfeGradient        0.9 \
	fdTest               no
fluid-solvent H2O 55.338 ScalarEOS \
	epsBulk 78.4 \
	pMol 0.92466 \
	epsInf 1.77 \
	Pvap 1.06736e-10 \
	sigmaBulk 4.62e-05 \
	Rvdw 2.61727 \
	Res 1.42
forces-output-coords Positions
initial-state common.$VAR
ion Pt   0.333333000000000  -0.333333000000000  -0.237676000000000 1
ion Pt  -0.333333000000000   0.333333000000000  -0.118838000000000 1
ion Pt   0.000000000000000   0.000000000000000   0.000000000000000 1
ion Pt   0.333333000000000  -0.333333000000000   0.118838000000000 1
ion Pt  -0.333333000000000   0.333333000000000   0.237676000000000 1
ion-species GBRV/$ID_pbesol.uspp
ion-width Ecut
ionic-minimize  \
	dirUpdateScheme      L-BFGS \
	linminMethod         DirUpdateRecommended \
	nIterations          0 \
	history              15 \
	knormThreshold       0.0001 \
	energyDiffThreshold  1e-06 \
	nEnergyDiff          2 \
	alphaTstart          1 \
	alphaTmin            1e-10 \
	updateTestStepSize   yes \
	alphaTreduceFactor   0.1 \
	alphaTincreaseFactor 3 \
	nAlphaAdjustMax      3 \
	wolfeEnergy          0.0001 \
	wolfeGradient        0.9 \
	fdTest               no
kpoint   0.000000000000   0.000000000000   0.000000000000  1.00000000000000
kpoint-folding 12 12 1 
latt-move-scale 1 1 1
latt-scale 1 1 1 
lattice Hexagonal 5.23966 36
lattice-minimize  \
	dirUpdateScheme      L-BFGS \
	linminMethod         DirUpdateRecommended \
	nIterations          0 \
	history              15 \
	knormThreshold       0 \
	energyDiffThreshold  1e-06 \
	nEnergyDiff          2 \
	alphaTstart          1 \
	alphaTmin            1e-10 \
	updateTestStepSize   yes \
	alphaTreduceFactor   0.1 \
	alphaTincreaseFactor 3 \
	nAlphaAdjustMax      3 \
	wolfeEnergy          0.0001 \
	wolfeGradient        0.9 \
	fdTest               no
lcao-params -1 1e-06 0.01
pcm-variant CANDLE
spintype no-spin
subspace-rotation-factor 1 yes
symmetries automatic
symmetry-threshold 0.0001
target-mu -0.1648 no




---------- Setting up symmetries ----------

Found 24 point-group symmetries of the bravais lattice
Found 12 space-group symmetries with basis
Applied RMS atom displacement 2.70575e-06 bohrs to make symmetries exact.

---------- Initializing the Grid ----------
R = 
[    5.23966   -2.61983          0  ]
[          0    4.53768          0  ]
[          0          0         36  ]
unit cell volume = 855.932
G =
[    1.19916   0.692335         -0  ]
[          0    1.38467          0  ]
[          0         -0   0.174533  ]
Minimum fftbox size, Smin = [  24  24  164  ]
Chosen fftbox size, S = [  24  24  168  ]

---------- Initializing tighter grid for wavefunction operations ----------
R = 
[    5.23966   -2.61983          0  ]
[          0    4.53768          0  ]
[          0          0         36  ]
unit cell volume = 855.932
G =
[    1.19916   0.692335         -0  ]
[          0    1.38467          0  ]
[          0         -0   0.174533  ]
Minimum fftbox size, Smin = [  24  24  148  ]
Chosen fftbox size, S = [  24  24  150  ]

---------- Exchange Correlation functional ----------
Initalized PBEsol GGA exchange.
Initalized PBEsol GGA correlation.

---------- Setting up pseudopotentials ----------
Width of ionic core gaussian charges (only for fluid interactions / plotting) set to 0.397384

Reading pseudopotential file '/Users/juanmendezvalderrama/Documents/JDFTX/build/pseudopotentials/GBRV/pt_pbesol.uspp':
  Title: Pt.  Created by USPP 7.3.6 on 22-9-15
  Reference state energy: -104.899005.  16 valence electrons in orbitals:
    |510>  occupation: 6  eigenvalue: -2.158847
    |520>  occupation: 9.5  eigenvalue: -0.336311
    |600>  occupation: 0  eigenvalue: -0.320324
    |610>  occupation: 0  eigenvalue: -0.119800
  lMax: 2  lLocal: 3  QijEcut: 5.5
  6 projectors sampled on a log grid with 745 points:
    l: 0  eig: -0.320324  rCut: 2.45
    l: 0  eig: 1.500000  rCut: 2.45
    l: 1  eig: -2.158847  rCut: 1.6
    l: 1  eig: -0.119800  rCut: 1.6
    l: 2  eig: -0.500000  rCut: 1.6
    l: 2  eig: -0.336311  rCut: 1.6
  Partial core density with radius 1.1
  Transforming core density to a uniform radial grid of dG=0.02 with 1620 points.
  Transforming local potential to a uniform radial grid of dG=0.02 with 1620 points.
  Transforming nonlocal projectors to a uniform radial grid of dG=0.02 with 432 points.
  Transforming density augmentations to a uniform radial grid of dG=0.02 with 1620 points.
  Transforming atomic orbitals to a uniform radial grid of dG=0.02 with 432 points.
  Core radius for overlap checks: 2.45 bohrs.

Initialized 1 species with 5 total atoms.

Folded 1 k-points by 12x12x1 to 144 k-points.

---------- Setting up k-points, bands, fillings ----------
Reduced to 19 k-points under symmetry. 
Computing the number of bands and number of electrons
Reading initial fillings from file common.fillings.
nElectrons:  80.213029   nBands: 60   nStates: 19

----- Setting up reduced wavefunction bases (one per k-point) -----
average nbasis = 3657.132 , ideal nbasis = 3656.607

---------- Setting up coulomb interaction ----------
Fluid mode embedding: using embedded box, but periodic Coulomb kernel.
(Fluid response is responsible for (approximate) separation between periodic images.)
Setting up double-sized grid for truncated Coulomb potentials:
R = 
[    5.23966   -2.61983          0  ]
[          0    4.53768          0  ]
[          0          0         72  ]
unit cell volume = 1711.86
G =
[    1.19916   0.692335         -0  ]
[          0    1.38467          0  ]
[          0         -0  0.0872665  ]
Chosen fftbox size, S = [  24  24  336  ]
Integer grid location selected as the embedding center:
   Grid: [  0  0  0  ]
   Lattice: [  0  0  0  ]
   Cartesian: [  0  0  0  ]
Constructing Wigner-Seitz cell: 8 faces (6 quadrilaterals, 2 hexagons)
Range-separation parameter for embedded mesh potentials due to point charges: 0.589462 bohrs.

Initializing van der Waals corrections
	NOTE: vdW corrections apply only for interactions with fluid.
	Pt:  C6:  815.23 Eh-a0^6  R0: 3.326 a0 (WARNING: beyond Grimme's data set)

---------- Setting up ewald sum ----------
Optimum gaussian width for ewald sums = 3.649540 bohr.
Real space sum over 1805 unit cells with max indices [  9  9  2  ]
Reciprocal space sum over 5103 terms with max indices [  4  4  31  ]

---------- Allocating electronic variables ----------
Initializing wave functions:  reading from 'common.wfns'
----- createFluidSolver() ----- (Fluid-side solver setup)
   Initializing fluid molecule 'H2O'
     Initializing site 'O'
       Electron density: proportional to exp(-r/0.36935)*erfc((r-0.51523)/0.36823) with norm 6.826
       Charge density: gaussian nuclear width 0.478731 with net site charge 0.826
       Polarizability: cuspless exponential with width 0.32 and norm 3.73
       Hard sphere radius: 2.57003 bohrs
       Positions in reference frame:
         [ +0.000000 +0.000000 +0.000000 ]
     Initializing site 'H'
       Electron density: proportional to exp(-r/0.34641)*erfc((r-0)/0.390882) with norm 0.587
       Charge density: gaussian nuclear width 0.377945 with net site charge -0.413
       Polarizability: cuspless exponential with width 0.39 and norm 3.3
       Positions in reference frame:
         [ +0.000000 -1.441945 +1.122523 ]
         [ +0.000000 +1.441945 +1.122523 ]
     Net charge: 0   dipole magnitude: 0.927204
     Initializing spherical shell mfKernel with radius 2.61727 Bohr
     deltaS corrections:
       site 'O': -7.54299
       site 'H': -6.83917
   Initializing fluid molecule 'Na+'
     Initializing site 'Na'
       Electron density: proportional to exp(-r/0.19682)*erfc((r-0.71491)/0.41314) with norm 8.1383
       Charge density: gaussian nuclear width 0.365347 with net site charge -1
       Hard sphere radius: 1.86327 bohrs
       Positions in reference frame:
         [ +0.000000 +0.000000 +0.000000 ]
     Net charge: -1   dipole magnitude: 0
     Initializing gaussian mfKernel with width: 1.55004 Bohr
     deltaS corrections:
       site 'Na': -22.3555
   Initializing fluid molecule 'F-'
     Initializing site 'F'
       Electron density: proportional to exp(-r/0.38886)*erfc((r-0)/0.438782) with norm 8
       Charge density: gaussian nuclear width 0.374796 with net site charge 1
       Hard sphere radius: 2.39995 bohrs
       Positions in reference frame:
         [ +0.000000 +0.000000 +0.000000 ]
     Net charge: 1   dipole magnitude: 0
     Initializing gaussian mfKernel with width: 1.59012 Bohr
     deltaS corrections:
       site 'F': -9.04335

Correction to mu due to finite nuclear width = -0.0463682
   Cavity determined by nc: 0.00142 and sigma: 0.707107
   Nonlocal vdW cavity from gaussian model electron density with norm = 8 and sigma = 0.993594 bohr
   Charge asymmetry in cavity with sensitivity pCavity = 36.5 e-bohr/Eh
   Electrostatic cavity expanded by eta = 1.46 bohrs
   Weighted density cavitation model constrained by Nbulk: 0.0049383 bohr^-3, Pvap: 3.14029 kPa, Rvdw: 2.61727 bohr and sigmaBulk: 4.62e-05 Eh/bohr^2 at T: 298 K.
   Weighted density dispersion model using vdW pair potentials with single solvent site with sqrtC6eff: 0.77 SI.
Reading fluid state from 'common.fluidState'


---- Citations for features of the code used in this run ----

   Software package:
      R. Sundararaman, K. Letchworth-Weaver, K.A. Schwarz, D. Gunceler, Y. Ozhabes and T.A. Arias, 'JDFTx: software for joint density-functional theory', SoftwareX 6, 278 (2017)

   gga-PBEsol exchange-correlation functional:
      J.P. Perdew et al., Phys. Rev. Lett. 100, 136406 (2008)

   Pseudopotentials:
      KF Garrity, JW Bennett, KM Rabe and D Vanderbilt, Comput. Mater. Sci. 81, 446 (2014)

   Truncated Coulomb potentials:
      R. Sundararaman and T.A. Arias, Phys. Rev. B 87, 165122 (2013)

   Van der Waals correction pair-potentials:
      S. Grimme, J. Comput. Chem. 27, 1787 (2006)

   Charge-asymmetric nonlocally-determined local-electric (CANDLE) solvation model:
      R. Sundararaman and W.A. Goddard III, J. Chem. Phys. 142, 064107 (2015)

   Total energy minimization with Auxiliary Hamiltonian:
      C. Freysoldt, S. Boeck, and J. Neugebauer, Phys. Rev. B 79, 241103(R) (2009)

   Grand-canonical (fixed-potential) DFT:
      R. Sundararaman, W. A. Goddard III and T. A. Arias, J. Chem. Phys. 146, 114104 (2017)

This list may not be complete. Please suggest additional citations or
report any other bugs at https://github.com/shankar1729/jdftx/issues

Initialization completed successfully at t[s]:      3.83

Shifting auxilliary hamiltonian by 0.003575 to set nElectrons=80.213029
	Linear fluid (dielectric constant: 78.4, screening length: 5.74355 Bohr) occupying 0.623438 of unit cell:	Completed after 7 iterations at t[s]:      5.80

-------- Electronic minimization -----------
	Linear fluid (dielectric constant: 78.4, screening length: 5.74355 Bohr) occupying 0.623438 of unit cell:	Completed after 0 iterations at t[s]:      6.64
	FillingsUpdate:  mu: -0.164800000  nElectrons: 80.213029
ElecMinimize: Iter:   0  G: -431.971270479170471  |grad|_K:  1.614e-05  alpha:  1.000e+00
	Linear fluid (dielectric constant: 78.4, screening length: 5.74355 Bohr) occupying 0.643838 of unit cell:	Completed after 25 iterations at t[s]:     10.30
	Linear fluid (dielectric constant: 78.4, screening length: 5.74355 Bohr) occupying 0.623997 of unit cell:	Completed after 32 iterations at t[s]:     12.49
	FillingsUpdate:  mu: -0.164800000  nElectrons: 80.216395
	SubspaceRotationAdjust: set factor to 0.516
ElecMinimize: Iter:   1  G: -431.971275737495432  |grad|_K:  6.719e-06  alpha:  5.414e-03  linmin:  4.627e-02  t[s]:     13.93
	Linear fluid (dielectric constant: 78.4, screening length: 5.74355 Bohr) occupying 0.624019 of unit cell:	Completed after 14 iterations at t[s]:     15.56
ElecMinimize: 	Predicted alpha/alphaT>3.000000, increasing alphaT to 1.624338e-02.
	Linear fluid (dielectric constant: 78.4, screening length: 5.74355 Bohr) occupying 0.624064 of unit cell:	Completed after 15 iterations at t[s]:     17.16
	Linear fluid (dielectric constant: 78.4, screening length: 5.74355 Bohr) occupying 0.624135 of unit cell:	Completed after 14 iterations at t[s]:     18.69
	FillingsUpdate:  mu: -0.164800000  nElectrons: 80.217363
	SubspaceRotationAdjust: set factor to 0.263
ElecMinimize: Iter:   2  G: -431.971281373886029  |grad|_K:  5.611e-06  alpha:  3.347e-02  linmin:  2.200e-04  t[s]:     20.07
	Linear fluid (dielectric constant: 78.4, screening length: 5.74355 Bohr) occupying 0.625020 of unit cell:	Completed after 17 iterations at t[s]:     21.76
	Linear fluid (dielectric constant: 78.4, screening length: 5.74355 Bohr) occupying 0.624514 of unit cell:	Completed after 17 iterations at t[s]:     23.37
	FillingsUpdate:  mu: -0.164800000  nElectrons: 80.219751
	SubspaceRotationAdjust: set factor to 0.122
	SubspaceRotationAdjust: resetting CG because factor has changed by 0.121699
	Linear fluid (dielectric constant: 78.4, screening length: 5.74355 Bohr) occupying 0.624514 of unit cell:	Completed after 0 iterations at t[s]:     25.39
ElecMinimize: 	State modified externally: resetting search direction.
ElecMinimize: Iter:   3  G: -431.971283262558075  |grad|_K:  1.568e-06  alpha:  1.415e-02
	Linear fluid (dielectric constant: 78.4, screening length: 5.74355 Bohr) occupying 0.624495 of unit cell:	Completed after 11 iterations at t[s]:     28.26
ElecMinimize: 	Predicted alpha/alphaT>3.000000, increasing alphaT to 4.245612e-02.
	Linear fluid (dielectric constant: 78.4, screening length: 5.74355 Bohr) occupying 0.624458 of unit cell:	Completed after 12 iterations at t[s]:     29.71
	Linear fluid (dielectric constant: 78.4, screening length: 5.74355 Bohr) occupying 0.624367 of unit cell:	Completed after 14 iterations at t[s]:     31.24
	FillingsUpdate:  mu: -0.164800000  nElectrons: 80.218877
	SubspaceRotationAdjust: set factor to 0.0665
ElecMinimize: Iter:   4  G: -431.971284415138598  |grad|_K:  2.122e-06  alpha:  1.115e-01  linmin: -5.187e-05  t[s]:     32.61
	Linear fluid (dielectric constant: 78.4, screening length: 5.74355 Bohr) occupying 0.624547 of unit cell:	Completed after 15 iterations at t[s]:     34.19
	Linear fluid (dielectric constant: 78.4, screening length: 5.74355 Bohr) occupying 0.624647 of unit cell:	Completed after 14 iterations at t[s]:     35.72
	FillingsUpdate:  mu: -0.164800000  nElectrons: 80.220768
	SubspaceRotationAdjust: set factor to 0.0773
ElecMinimize: Iter:   5  G: -431.971287712283242  |grad|_K:  1.047e-06  alpha:  1.741e-01  linmin:  3.650e-05  t[s]:     37.13
	Linear fluid (dielectric constant: 78.4, screening length: 5.74355 Bohr) occupying 0.624740 of unit cell:	Completed after 11 iterations at t[s]:     38.59
ElecMinimize: 	Predicted alpha/alphaT>3.000000, increasing alphaT to 5.221859e-01.
	Linear fluid (dielectric constant: 78.4, screening length: 5.74355 Bohr) occupying 0.624923 of unit cell:	Completed after 15 iterations at t[s]:     40.10
	Linear fluid (dielectric constant: 78.4, screening length: 5.74355 Bohr) occupying 0.625043 of unit cell:	Completed after 11 iterations at t[s]:     41.57
	FillingsUpdate:  mu: -0.164800000  nElectrons: 80.223561
	SubspaceRotationAdjust: set factor to 0.0964
ElecMinimize: Iter:   6  G: -431.971291159672660  |grad|_K:  1.033e-06  alpha:  7.506e-01  linmin:  3.553e-04  t[s]:     42.91
	Linear fluid (dielectric constant: 78.4, screening length: 5.74355 Bohr) occupying 0.624965 of unit cell:	Completed after 14 iterations at t[s]:     44.48
	Linear fluid (dielectric constant: 78.4, screening length: 5.74355 Bohr) occupying 0.625013 of unit cell:	Completed after 14 iterations at t[s]:     46.02
	FillingsUpdate:  mu: -0.164800000  nElectrons: 80.223552
	SubspaceRotationAdjust: set factor to 0.0607
ElecMinimize: Iter:   7  G: -431.971292471765878  |grad|_K:  1.864e-06  alpha:  2.910e-01  linmin: -8.679e-05  t[s]:     47.39
	Linear fluid (dielectric constant: 78.4, screening length: 5.74355 Bohr) occupying 0.625737 of unit cell:	Completed after 17 iterations at t[s]:     49.05
	Linear fluid (dielectric constant: 78.4, screening length: 5.74355 Bohr) occupying 0.625306 of unit cell:	Completed after 16 iterations at t[s]:     50.65
	FillingsUpdate:  mu: -0.164800000  nElectrons: 80.225702
	SubspaceRotationAdjust: set factor to 0.0382
ElecMinimize: Iter:   8  G: -431.971294197754787  |grad|_K:  9.238e-07  alpha:  1.165e-01  linmin: -3.366e-04  t[s]:     52.05
	Linear fluid (dielectric constant: 78.4, screening length: 5.74355 Bohr) occupying 0.625320 of unit cell:	Completed after 8 iterations at t[s]:     53.45
ElecMinimize: 	Predicted alpha/alphaT>3.000000, increasing alphaT to 3.495632e-01.
	Linear fluid (dielectric constant: 78.4, screening length: 5.74355 Bohr) occupying 0.625348 of unit cell:	Completed after 9 iterations at t[s]:     54.78
	Linear fluid (dielectric constant: 78.4, screening length: 5.74355 Bohr) occupying 0.625402 of unit cell:	Completed after 12 iterations at t[s]:     56.25
	FillingsUpdate:  mu: -0.164800000  nElectrons: 80.226916
	SubspaceRotationAdjust: set factor to 0.0443
ElecMinimize: Iter:   9  G: -431.971297091202530  |grad|_K:  8.628e-07  alpha:  8.002e-01  linmin:  2.295e-05  t[s]:     57.64
	Linear fluid (dielectric constant: 78.4, screening length: 5.74355 Bohr) occupying 0.625427 of unit cell:	Completed after 13 iterations at t[s]:     59.17
	Linear fluid (dielectric constant: 78.4, screening length: 5.74355 Bohr) occupying 0.625424 of unit cell:	Completed after 7 iterations at t[s]:     60.48
	FillingsUpdate:  mu: -0.164800000  nElectrons: 80.227569
	SubspaceRotationAdjust: set factor to 0.0469
ElecMinimize: Iter:  10  G: -431.971299297070289  |grad|_K:  7.297e-07  alpha:  7.054e-01  linmin:  2.771e-05  t[s]:     61.89
	Linear fluid (dielectric constant: 78.4, screening length: 5.74355 Bohr) occupying 0.625714 of unit cell:	Completed after 15 iterations at t[s]:     63.52
	Linear fluid (dielectric constant: 78.4, screening length: 5.74355 Bohr) occupying 0.625539 of unit cell:	Completed after 14 iterations at t[s]:     65.04
	FillingsUpdate:  mu: -0.164800000  nElectrons: 80.228473
	SubspaceRotationAdjust: set factor to 0.0346
ElecMinimize: Iter:  11  G: -431.971299920613490  |grad|_K:  8.452e-07  alpha:  2.787e-01  linmin: -4.514e-05  t[s]:     66.47
	Linear fluid (dielectric constant: 78.4, screening length: 5.74355 Bohr) occupying 0.625457 of unit cell:	Completed after 15 iterations at t[s]:     68.12
	Linear fluid (dielectric constant: 78.4, screening length: 5.74355 Bohr) occupying 0.625477 of unit cell:	Completed after 11 iterations at t[s]:     69.55
	FillingsUpdate:  mu: -0.164800000  nElectrons: 80.228221
	SubspaceRotationAdjust: set factor to 0.0244
ElecMinimize: Iter:  12  G: -431.971300557316454  |grad|_K:  4.064e-07  alpha:  2.117e-01  linmin:  3.512e-05  t[s]:     70.97
	Linear fluid (dielectric constant: 78.4, screening length: 5.74355 Bohr) occupying 0.625483 of unit cell:	Completed after 2 iterations at t[s]:     72.18
	Linear fluid (dielectric constant: 78.4, screening length: 5.74355 Bohr) occupying 0.625492 of unit cell:	Completed after 2 iterations at t[s]:     73.35
	FillingsUpdate:  mu: -0.164800000  nElectrons: 80.228430
	SubspaceRotationAdjust: set factor to 0.0308
ElecMinimize: Iter:  13  G: -431.971300943410597  |grad|_K:  2.769e-07  alpha:  5.587e-01  linmin:  3.136e-04  t[s]:     74.77
	Linear fluid (dielectric constant: 78.4, screening length: 5.74355 Bohr) occupying 0.625529 of unit cell:	Completed after 12 iterations at t[s]:     76.33
	Linear fluid (dielectric constant: 78.4, screening length: 5.74355 Bohr) occupying 0.625528 of unit cell:	Completed after 0 iterations at t[s]:     77.41
	FillingsUpdate:  mu: -0.164800000  nElectrons: 80.228714
	SubspaceRotationAdjust: set factor to 0.0276
ElecMinimize: Iter:  14  G: -431.971301114632922  |grad|_K:  2.568e-07  alpha:  5.339e-01  linmin:  4.278e-04  t[s]:     78.86
	Linear fluid (dielectric constant: 78.4, screening length: 5.74355 Bohr) occupying 0.625463 of unit cell:	Completed after 14 iterations at t[s]:     80.51
	Linear fluid (dielectric constant: 78.4, screening length: 5.74355 Bohr) occupying 0.625498 of unit cell:	Completed after 13 iterations at t[s]:     82.07
	FillingsUpdate:  mu: -0.164800000  nElectrons: 80.228545
	SubspaceRotationAdjust: set factor to 0.0195
ElecMinimize: Iter:  15  G: -431.971301179603643  |grad|_K:  2.047e-07  alpha:  2.440e-01  linmin:  1.722e-04  t[s]:     83.54
	Linear fluid (dielectric constant: 78.4, screening length: 5.74355 Bohr) occupying 0.625504 of unit cell:	Completed after 5 iterations at t[s]:     84.92
	Linear fluid (dielectric constant: 78.4, screening length: 5.74355 Bohr) occupying 0.625511 of unit cell:	Completed after 8 iterations at t[s]:     86.29
	FillingsUpdate:  mu: -0.164800000  nElectrons: 80.228673
	SubspaceRotationAdjust: set factor to 0.0239
ElecMinimize: Iter:  16  G: -431.971301267495107  |grad|_K:  1.622e-07  alpha:  5.048e-01  linmin:  4.180e-04  t[s]:     87.78
	Linear fluid (dielectric constant: 78.4, screening length: 5.74355 Bohr) occupying 0.625521 of unit cell:	Completed after 8 iterations at t[s]:     89.24
	Linear fluid (dielectric constant: 78.4, screening length: 5.74355 Bohr) occupying 0.625522 of unit cell:	Completed after 3 iterations at t[s]:     90.46
	FillingsUpdate:  mu: -0.164800000  nElectrons: 80.228792
	SubspaceRotationAdjust: set factor to 0.0259
ElecMinimize: Iter:  17  G: -431.971301333584961  |grad|_K:  1.595e-07  alpha:  6.033e-01  linmin: -1.378e-04  t[s]:     91.93
	Linear fluid (dielectric constant: 78.4, screening length: 5.74355 Bohr) occupying 0.625488 of unit cell:	Completed after 12 iterations at t[s]:     93.52
	Linear fluid (dielectric constant: 78.4, screening length: 5.74355 Bohr) occupying 0.625497 of unit cell:	Completed after 7 iterations at t[s]:     94.89
	FillingsUpdate:  mu: -0.164800000  nElectrons: 80.228661
	SubspaceRotationAdjust: set factor to 0.0212
ElecMinimize: Iter:  18  G: -431.971301383241496  |grad|_K:  1.781e-07  alpha:  4.563e-01  linmin:  8.982e-04  t[s]:     96.38
	Linear fluid (dielectric constant: 78.4, screening length: 5.74355 Bohr) occupying 0.625512 of unit cell:	Completed after 12 iterations at t[s]:     98.01
	Linear fluid (dielectric constant: 78.4, screening length: 5.74355 Bohr) occupying 0.625513 of unit cell:	Completed after 0 iterations at t[s]:     99.10
	FillingsUpdate:  mu: -0.164800000  nElectrons: 80.228826
	SubspaceRotationAdjust: set factor to 0.0199
ElecMinimize: Iter:  19  G: -431.971301447105077  |grad|_K:  1.557e-07  alpha:  4.912e-01  linmin: -7.661e-04  t[s]:    100.56
	Linear fluid (dielectric constant: 78.4, screening length: 5.74355 Bohr) occupying 0.625514 of unit cell:	Completed after 2 iterations at t[s]:    101.79
	Linear fluid (dielectric constant: 78.4, screening length: 5.74355 Bohr) occupying 0.625514 of unit cell:	Completed after 2 iterations at t[s]:    102.98
	FillingsUpdate:  mu: -0.164800000  nElectrons: 80.228899
	SubspaceRotationAdjust: set factor to 0.0235
ElecMinimize: Iter:  20  G: -431.971301518804864  |grad|_K:  1.616e-07  alpha:  6.815e-01  linmin: -3.329e-04  t[s]:    104.42
	Linear fluid (dielectric constant: 78.4, screening length: 5.74355 Bohr) occupying 0.625486 of unit cell:	Completed after 12 iterations at t[s]:    105.99
	Linear fluid (dielectric constant: 78.4, screening length: 5.74355 Bohr) occupying 0.625491 of unit cell:	Completed after 6 iterations at t[s]:    107.31
	FillingsUpdate:  mu: -0.164800000  nElectrons: 80.228812
	SubspaceRotationAdjust: set factor to 0.0205
ElecMinimize: Iter:  21  G: -431.971301582012359  |grad|_K:  1.810e-07  alpha:  5.653e-01  linmin:  4.419e-04  t[s]:    108.74
	Linear fluid (dielectric constant: 78.4, screening length: 5.74355 Bohr) occupying 0.625524 of unit cell:	Completed after 13 iterations at t[s]:    110.33
	Linear fluid (dielectric constant: 78.4, screening length: 5.74355 Bohr) occupying 0.625515 of unit cell:	Completed after 7 iterations at t[s]:    111.68
	FillingsUpdate:  mu: -0.164800000  nElectrons: 80.229030
	SubspaceRotationAdjust: set factor to 0.0163
	SubspaceRotationAdjust: resetting CG because factor has changed by 0.13419
	Linear fluid (dielectric constant: 78.4, screening length: 5.74355 Bohr) occupying 0.625515 of unit cell:	Completed after 0 iterations at t[s]:    113.77
ElecMinimize: 	State modified externally: resetting search direction.
ElecMinimize: Iter:  22  G: -431.971301637009560  |grad|_K:  1.515e-07  alpha:  4.086e-01
	Linear fluid (dielectric constant: 78.4, screening length: 5.74355 Bohr) occupying 0.625500 of unit cell:	Completed after 11 iterations at t[s]:    116.71
	Linear fluid (dielectric constant: 78.4, screening length: 5.74355 Bohr) occupying 0.625505 of unit cell:	Completed after 5 iterations at t[s]:    117.97
	FillingsUpdate:  mu: -0.164800000  nElectrons: 80.228965
	SubspaceRotationAdjust: set factor to 0.0192
ElecMinimize: Iter:  23  G: -431.971301663977158  |grad|_K:  8.101e-08  alpha:  2.809e-01  linmin:  2.845e-03  t[s]:    119.39
	Linear fluid (dielectric constant: 78.4, screening length: 5.74355 Bohr) occupying 0.625510 of unit cell:	Completed after 7 iterations at t[s]:    120.78
	Linear fluid (dielectric constant: 78.4, screening length: 5.74355 Bohr) occupying 0.625514 of unit cell:	Completed after 5 iterations at t[s]:    122.06
	FillingsUpdate:  mu: -0.164800000  nElectrons: 80.229030
	SubspaceRotationAdjust: set factor to 0.0199
ElecMinimize: Iter:  24  G: -431.971301678862403  |grad|_K:  6.618e-08  alpha:  5.136e-01  linmin: -1.185e-02  t[s]:    123.50
	Linear fluid (dielectric constant: 78.4, screening length: 5.74355 Bohr) occupying 0.625513 of unit cell:	Completed after 3 iterations at t[s]:    124.78
	Linear fluid (dielectric constant: 78.4, screening length: 5.74355 Bohr) occupying 0.625513 of unit cell:	Completed after 3 iterations at t[s]:    125.98
	FillingsUpdate:  mu: -0.164800000  nElectrons: 80.229028
	SubspaceRotationAdjust: set factor to 0.0248
ElecMinimize: Iter:  25  G: -431.971301692225154  |grad|_K:  7.417e-08  alpha:  6.681e-01  linmin: -1.384e-05  t[s]:    127.42
	Linear fluid (dielectric constant: 78.4, screening length: 5.74355 Bohr) occupying 0.625518 of unit cell:	Completed after 2 iterations at t[s]:    128.67
	Linear fluid (dielectric constant: 78.4, screening length: 5.74355 Bohr) occupying 0.625519 of unit cell:	Completed after 2 iterations at t[s]:    129.86
	FillingsUpdate:  mu: -0.164800000  nElectrons: 80.229082
	SubspaceRotationAdjust: set factor to 0.0288
ElecMinimize: Iter:  26  G: -431.971301711690330  |grad|_K:  9.143e-08  alpha:  8.462e-01  linmin: -1.078e-04  t[s]:    131.29
	Linear fluid (dielectric constant: 78.4, screening length: 5.74355 Bohr) occupying 0.625541 of unit cell:	Completed after 10 iterations at t[s]:    132.79
	Linear fluid (dielectric constant: 78.4, screening length: 5.74355 Bohr) occupying 0.625536 of unit cell:	Completed after 2 iterations at t[s]:    133.98
	FillingsUpdate:  mu: -0.164800000  nElectrons: 80.229214
	SubspaceRotationAdjust: set factor to 0.0283
ElecMinimize: Iter:  27  G: -431.971301734804001  |grad|_K:  1.168e-07  alpha:  6.520e-01  linmin:  5.908e-04  t[s]:    135.41
	Linear fluid (dielectric constant: 78.4, screening length: 5.74355 Bohr) occupying 0.625517 of unit cell:	Completed after 11 iterations at t[s]:    136.95
	Linear fluid (dielectric constant: 78.4, screening length: 5.74355 Bohr) occupying 0.625527 of unit cell:	Completed after 11 iterations at t[s]:    138.43
	FillingsUpdate:  mu: -0.164800000  nElectrons: 80.229174
	SubspaceRotationAdjust: set factor to 0.0223
ElecMinimize: Iter:  28  G: -431.971301751566045  |grad|_K:  1.121e-07  alpha:  3.157e-01  linmin:  1.089e-04  t[s]:    139.83
	Linear fluid (dielectric constant: 78.4, screening length: 5.74355 Bohr) occupying 0.625533 of unit cell:	Completed after 3 iterations at t[s]:    141.11
	Linear fluid (dielectric constant: 78.4, screening length: 5.74355 Bohr) occupying 0.625537 of unit cell:	Completed after 3 iterations at t[s]:    142.32
	FillingsUpdate:  mu: -0.164800000  nElectrons: 80.229284
	SubspaceRotationAdjust: set factor to 0.0294
ElecMinimize: Iter:  29  G: -431.971301779065925  |grad|_K:  8.793e-08  alpha:  5.308e-01  linmin:  4.708e-04  t[s]:    143.77
	Linear fluid (dielectric constant: 78.4, screening length: 5.74355 Bohr) occupying 0.625546 of unit cell:	Completed after 8 iterations at t[s]:    145.20
	Linear fluid (dielectric constant: 78.4, screening length: 5.74355 Bohr) occupying 0.625544 of unit cell:	Completed after 2 iterations at t[s]:    146.38
	FillingsUpdate:  mu: -0.164800000  nElectrons: 80.229354
	SubspaceRotationAdjust: set factor to 0.0218
ElecMinimize: Iter:  30  G: -431.971301792241320  |grad|_K:  1.037e-07  alpha:  4.271e-01  linmin: -3.397e-04  t[s]:    147.82
	Linear fluid (dielectric constant: 78.4, screening length: 5.74355 Bohr) occupying 0.625521 of unit cell:	Completed after 11 iterations at t[s]:    149.36
	Linear fluid (dielectric constant: 78.4, screening length: 5.74355 Bohr) occupying 0.625532 of unit cell:	Completed after 8 iterations at t[s]:    150.74
	FillingsUpdate:  mu: -0.164800000  nElectrons: 80.229290
	SubspaceRotationAdjust: set factor to 0.0213
ElecMinimize: Iter:  31  G: -431.971301802612118  |grad|_K:  7.499e-08  alpha:  2.283e-01  linmin:  4.511e-04  t[s]:    152.15
	Linear fluid (dielectric constant: 78.4, screening length: 5.74355 Bohr) occupying 0.625528 of unit cell:	Completed after 2 iterations at t[s]:    153.36
	Linear fluid (dielectric constant: 78.4, screening length: 5.74355 Bohr) occupying 0.625523 of unit cell:	Completed after 2 iterations at t[s]:    154.50
	FillingsUpdate:  mu: -0.164800000  nElectrons: 80.229261
	SubspaceRotationAdjust: set factor to 0.0242
ElecMinimize: Iter:  32  G: -431.971301815615675  |grad|_K:  7.785e-08  alpha:  5.650e-01  linmin:  1.778e-04  t[s]:    155.87
	Linear fluid (dielectric constant: 78.4, screening length: 5.74355 Bohr) occupying 0.625530 of unit cell:	Completed after 9 iterations at t[s]:    157.31
	Linear fluid (dielectric constant: 78.4, screening length: 5.74355 Bohr) occupying 0.625529 of unit cell:	Completed after 0 iterations at t[s]:    158.42
	FillingsUpdate:  mu: -0.164800000  nElectrons: 80.229325
	SubspaceRotationAdjust: set factor to 0.0226
ElecMinimize: Iter:  33  G: -431.971301828711432  |grad|_K:  9.609e-08  alpha:  5.125e-01  linmin:  1.212e-03  t[s]:    159.84
	Linear fluid (dielectric constant: 78.4, screening length: 5.74355 Bohr) occupying 0.625515 of unit cell:	Completed after 8 iterations at t[s]:    161.25
	Linear fluid (dielectric constant: 78.4, screening length: 5.74355 Bohr) occupying 0.625515 of unit cell:	Completed after 0 iterations at t[s]:    162.30
	FillingsUpdate:  mu: -0.164800000  nElectrons: 80.229276
	SubspaceRotationAdjust: set factor to 0.0236
ElecMinimize: Iter:  34  G: -431.971301846117342  |grad|_K:  8.798e-08  alpha:  4.917e-01  linmin: -9.432e-05  t[s]:    163.72
	Linear fluid (dielectric constant: 78.4, screening length: 5.74355 Bohr) occupying 0.625509 of unit cell:	Completed after 2 iterations at t[s]:    164.98
	Linear fluid (dielectric constant: 78.4, screening length: 5.74355 Bohr) occupying 0.625507 of unit cell:	Completed after 3 iterations at t[s]:    166.19
	FillingsUpdate:  mu: -0.164800000  nElectrons: 80.229268
	SubspaceRotationAdjust: set factor to 0.0267
ElecMinimize: Iter:  35  G: -431.971301867268721  |grad|_K:  9.019e-08  alpha:  6.536e-01  linmin:  1.211e-04  t[s]:    167.64
	Linear fluid (dielectric constant: 78.4, screening length: 5.74355 Bohr) occupying 0.625516 of unit cell:	Completed after 8 iterations at t[s]:    169.12
	Linear fluid (dielectric constant: 78.4, screening length: 5.74355 Bohr) occupying 0.625514 of unit cell:	Completed after 2 iterations at t[s]:    170.34
	FillingsUpdate:  mu: -0.164800000  nElectrons: 80.229353
	SubspaceRotationAdjust: set factor to 0.0237
ElecMinimize: Iter:  36  G: -431.971301885197931  |grad|_K:  8.018e-08  alpha:  5.284e-01  linmin:  4.836e-04  t[s]:    171.87
	Linear fluid (dielectric constant: 78.4, screening length: 5.74355 Bohr) occupying 0.625499 of unit cell:	Completed after 11 iterations at t[s]:    173.49
	Linear fluid (dielectric constant: 78.4, screening length: 5.74355 Bohr) occupying 0.625505 of unit cell:	Completed after 5 iterations at t[s]:    174.86
	FillingsUpdate:  mu: -0.164800000  nElectrons: 80.229312
	SubspaceRotationAdjust: set factor to 0.0187
ElecMinimize: Iter:  37  G: -431.971301893662314  |grad|_K:  6.492e-08  alpha:  3.185e-01  linmin:  5.407e-04  t[s]:    176.40
	Linear fluid (dielectric constant: 78.4, screening length: 5.74355 Bohr) occupying 0.625508 of unit cell:	Completed after 7 iterations at t[s]:    177.90
	Linear fluid (dielectric constant: 78.4, screening length: 5.74355 Bohr) occupying 0.625508 of unit cell:	Completed after 0 iterations at t[s]:    179.06
	FillingsUpdate:  mu: -0.164800000  nElectrons: 80.229345
	SubspaceRotationAdjust: set factor to 0.0174
ElecMinimize: Iter:  38  G: -431.971301899890477  |grad|_K:  4.197e-08  alpha:  3.521e-01  linmin: -2.642e-03  t[s]:    180.59
ElecMinimize: Converged (|Delta G|<1.000000e-08 for 2 iters).
Setting wave functions to eigenvectors of Hamiltonian

# Ionic positions in lattice coordinates:
ion Pt   0.333333333333333  -0.333333333333333  -0.237676000000000 1
ion Pt  -0.333333333333333   0.333333333333333  -0.118838000000000 1
ion Pt   0.000000000000000   0.000000000000000   0.000000000000000 1
ion Pt   0.333333333333333  -0.333333333333333   0.118838000000000 1
ion Pt  -0.333333333333333   0.333333333333333   0.237676000000000 1


# Forces in Lattice coordinates:
force Pt   0.000000000000000   0.000000000000000  -0.063692028651154 1
force Pt   0.000000000000000   0.000000000000000   0.096250826521518 1
force Pt   0.000000000000000   0.000000000000000   0.000000000000000 1
force Pt   0.000000000000000  -0.000000000000000  -0.096250826521518 1
force Pt  -0.000000000000000  -0.000000000000000   0.063692028651154 1

# Energy components:
   A_diel =       -0.0830703314153401
   Eewald =     4702.9680318706023172
       EH =     5117.0936428546601746
     Eloc =   -10341.9073125300656102
      Enl =       -5.2749532676794182
      Exc =     -141.6207624436499373
 Exc_core =       81.2082896017070937
       KE =      142.4894670930269172
  MuShift =       -0.0106343072407231
-------------------------------------
     Etot =     -445.1373014600541751
       TS =        0.0557964684385393
-------------------------------------
        F =     -445.1930979284927048
      muN =      -13.2217960286022027
-------------------------------------
        G =     -431.9713018998904772

IonicMinimize: Iter:   0  G: -431.971301899890477  |grad|_K:  1.171e-03  t[s]:    181.29
IonicMinimize: None of the convergence criteria satisfied after 0 iterations.

#--- Lowdin population analysis ---
# oxidation-state Pt -0.106 +0.009 +0.015 +0.009 -0.106


Dumping 'common.fillings' ... done
Dumping 'common.wfns' ... done
Dumping 'common.fluidState' ... done
Dumping 'common.eigenvals' ... done
Dumping 'common.nbound' ... done
End date and time: Tue Mar 19 07:01:40 2019  (Duration: 0-0:03:01.61)
Done!
