
*************** JDFTx 1.4.2  ***************

Start date and time: Tue Mar 19 06:53:29 2019
Executable jdftx with command-line: -i Charged.in
Running on hosts (process indices):  Juans-MBP.lan1 (0-3)
Divided in process groups (process indices):  0 (0)  1 (1)  2 (2)  3 (3)
Resource initialization completed at t[s]:      0.00
Run totals: 4 processes, 12 threads, 0 GPUs


Input parsed successfully to the following command list (including defaults):

basis kpoint-dependent
coords-type Lattice
core-overlap-check vector
coulomb-interaction Slab 001
coulomb-truncation-embed 0 0 0
davidson-band-ratio 1.1
dump End State BoundCharge
dump-name common.$VAR
elec-cutoff 20 100
elec-eigen-algo Davidson
elec-ex-corr gga-PBEsol
elec-smearing Fermi 0.01
electronic-minimize  \
	dirUpdateScheme      FletcherReeves \
	linminMethod         DirUpdateRecommended \
	nIterations          200 \
	history              15 \
	knormThreshold       0 \
	energyDiffThreshold  1e-08 \
	nEnergyDiff          2 \
	alphaTstart          1 \
	alphaTmin            1e-10 \
	updateTestStepSize   yes \
	alphaTreduceFactor   0.1 \
	alphaTincreaseFactor 3 \
	nAlphaAdjustMax      3 \
	wolfeEnergy          0.0001 \
	wolfeGradient        0.9 \
	fdTest               no
exchange-regularization WignerSeitzTruncated
fluid LinearPCM 298.000000 1.013250
fluid-anion F- 1 MeanFieldLJ \
	epsBulk 1 \
	pMol 0 \
	epsInf 1 \
	Pvap 0 \
	sigmaBulk 0 \
	Rvdw 2.24877 \
	Res 0
fluid-cation Na+ 1 MeanFieldLJ \
	epsBulk 1 \
	pMol 0 \
	epsInf 1 \
	Pvap 0 \
	sigmaBulk 0 \
	Rvdw 2.19208 \
	Res 0
fluid-ex-corr lda-TF lda-PZ
fluid-gummel-loop 10 1.000000e-05
fluid-minimize  \
	dirUpdateScheme      PolakRibiere \
	linminMethod         DirUpdateRecommended \
	nIterations          400 \
	history              15 \
	knormThreshold       1e-11 \
	energyDiffThreshold  0 \
	nEnergyDiff          2 \
	alphaTstart          1 \
	alphaTmin            1e-10 \
	updateTestStepSize   yes \
	alphaTreduceFactor   0.1 \
	alphaTincreaseFactor 3 \
	nAlphaAdjustMax      6 \
	wolfeEnergy          0.0001 \
	wolfeGradient        0.9 \
	fdTest               no
fluid-solvent H2O 55.338 ScalarEOS \
	epsBulk 78.4 \
	pMol 0.92466 \
	epsInf 1.77 \
	Pvap 1.06736e-10 \
	sigmaBulk 4.62e-05 \
	Rvdw 2.61727 \
	Res 1.42
forces-output-coords Positions
initial-state common.$VAR
ion Pt   0.333333000000000  -0.333333000000000  -0.237676000000000 1
ion Pt  -0.333333000000000   0.333333000000000  -0.118838000000000 1
ion Pt   0.000000000000000   0.000000000000000   0.000000000000000 1
ion Pt   0.333333000000000  -0.333333000000000   0.118838000000000 1
ion Pt  -0.333333000000000   0.333333000000000   0.237676000000000 1
ion-species GBRV/$ID_pbesol.uspp
ion-width Ecut
ionic-minimize  \
	dirUpdateScheme      L-BFGS \
	linminMethod         DirUpdateRecommended \
	nIterations          0 \
	history              15 \
	knormThreshold       0.0001 \
	energyDiffThreshold  1e-06 \
	nEnergyDiff          2 \
	alphaTstart          1 \
	alphaTmin            1e-10 \
	updateTestStepSize   yes \
	alphaTreduceFactor   0.1 \
	alphaTincreaseFactor 3 \
	nAlphaAdjustMax      3 \
	wolfeEnergy          0.0001 \
	wolfeGradient        0.9 \
	fdTest               no
kpoint   0.000000000000   0.000000000000   0.000000000000  1.00000000000000
kpoint-folding 12 12 1 
latt-move-scale 1 1 1
latt-scale 1 1 1 
lattice Hexagonal 5.23966 36
lattice-minimize  \
	dirUpdateScheme      L-BFGS \
	linminMethod         DirUpdateRecommended \
	nIterations          0 \
	history              15 \
	knormThreshold       0 \
	energyDiffThreshold  1e-06 \
	nEnergyDiff          2 \
	alphaTstart          1 \
	alphaTmin            1e-10 \
	updateTestStepSize   yes \
	alphaTreduceFactor   0.1 \
	alphaTincreaseFactor 3 \
	nAlphaAdjustMax      3 \
	wolfeEnergy          0.0001 \
	wolfeGradient        0.9 \
	fdTest               no
lcao-params -1 1e-06 0.01
pcm-variant CANDLE
spintype no-spin
subspace-rotation-factor 1 yes
symmetries automatic
symmetry-threshold 0.0001
target-mu -0.1721 no




---------- Setting up symmetries ----------

Found 24 point-group symmetries of the bravais lattice
Found 12 space-group symmetries with basis
Applied RMS atom displacement 2.70575e-06 bohrs to make symmetries exact.

---------- Initializing the Grid ----------
R = 
[    5.23966   -2.61983          0  ]
[          0    4.53768          0  ]
[          0          0         36  ]
unit cell volume = 855.932
G =
[    1.19916   0.692335         -0  ]
[          0    1.38467          0  ]
[          0         -0   0.174533  ]
Minimum fftbox size, Smin = [  24  24  164  ]
Chosen fftbox size, S = [  24  24  168  ]

---------- Initializing tighter grid for wavefunction operations ----------
R = 
[    5.23966   -2.61983          0  ]
[          0    4.53768          0  ]
[          0          0         36  ]
unit cell volume = 855.932
G =
[    1.19916   0.692335         -0  ]
[          0    1.38467          0  ]
[          0         -0   0.174533  ]
Minimum fftbox size, Smin = [  24  24  148  ]
Chosen fftbox size, S = [  24  24  150  ]

---------- Exchange Correlation functional ----------
Initalized PBEsol GGA exchange.
Initalized PBEsol GGA correlation.

---------- Setting up pseudopotentials ----------
Width of ionic core gaussian charges (only for fluid interactions / plotting) set to 0.397384

Reading pseudopotential file '/Users/juanmendezvalderrama/Documents/JDFTX/build/pseudopotentials/GBRV/pt_pbesol.uspp':
  Title: Pt.  Created by USPP 7.3.6 on 22-9-15
  Reference state energy: -104.899005.  16 valence electrons in orbitals:
    |510>  occupation: 6  eigenvalue: -2.158847
    |520>  occupation: 9.5  eigenvalue: -0.336311
    |600>  occupation: 0  eigenvalue: -0.320324
    |610>  occupation: 0  eigenvalue: -0.119800
  lMax: 2  lLocal: 3  QijEcut: 5.5
  6 projectors sampled on a log grid with 745 points:
    l: 0  eig: -0.320324  rCut: 2.45
    l: 0  eig: 1.500000  rCut: 2.45
    l: 1  eig: -2.158847  rCut: 1.6
    l: 1  eig: -0.119800  rCut: 1.6
    l: 2  eig: -0.500000  rCut: 1.6
    l: 2  eig: -0.336311  rCut: 1.6
  Partial core density with radius 1.1
  Transforming core density to a uniform radial grid of dG=0.02 with 1620 points.
  Transforming local potential to a uniform radial grid of dG=0.02 with 1620 points.
  Transforming nonlocal projectors to a uniform radial grid of dG=0.02 with 432 points.
  Transforming density augmentations to a uniform radial grid of dG=0.02 with 1620 points.
  Transforming atomic orbitals to a uniform radial grid of dG=0.02 with 432 points.
  Core radius for overlap checks: 2.45 bohrs.

Initialized 1 species with 5 total atoms.

Folded 1 k-points by 12x12x1 to 144 k-points.

---------- Setting up k-points, bands, fillings ----------
Reduced to 19 k-points under symmetry. 
Computing the number of bands and number of electrons
Reading initial fillings from file common.fillings.
nElectrons:  80.175241   nBands: 60   nStates: 19

----- Setting up reduced wavefunction bases (one per k-point) -----
average nbasis = 3657.132 , ideal nbasis = 3656.607

---------- Setting up coulomb interaction ----------
Fluid mode embedding: using embedded box, but periodic Coulomb kernel.
(Fluid response is responsible for (approximate) separation between periodic images.)
Setting up double-sized grid for truncated Coulomb potentials:
R = 
[    5.23966   -2.61983          0  ]
[          0    4.53768          0  ]
[          0          0         72  ]
unit cell volume = 1711.86
G =
[    1.19916   0.692335         -0  ]
[          0    1.38467          0  ]
[          0         -0  0.0872665  ]
Chosen fftbox size, S = [  24  24  336  ]
Integer grid location selected as the embedding center:
   Grid: [  0  0  0  ]
   Lattice: [  0  0  0  ]
   Cartesian: [  0  0  0  ]
Constructing Wigner-Seitz cell: 8 faces (6 quadrilaterals, 2 hexagons)
Range-separation parameter for embedded mesh potentials due to point charges: 0.589462 bohrs.

Initializing van der Waals corrections
	NOTE: vdW corrections apply only for interactions with fluid.
	Pt:  C6:  815.23 Eh-a0^6  R0: 3.326 a0 (WARNING: beyond Grimme's data set)

---------- Setting up ewald sum ----------
Optimum gaussian width for ewald sums = 3.649540 bohr.
Real space sum over 1805 unit cells with max indices [  9  9  2  ]
Reciprocal space sum over 5103 terms with max indices [  4  4  31  ]

---------- Allocating electronic variables ----------
Initializing wave functions:  reading from 'common.wfns'
----- createFluidSolver() ----- (Fluid-side solver setup)
   Initializing fluid molecule 'H2O'
     Initializing site 'O'
       Electron density: proportional to exp(-r/0.36935)*erfc((r-0.51523)/0.36823) with norm 6.826
       Charge density: gaussian nuclear width 0.478731 with net site charge 0.826
       Polarizability: cuspless exponential with width 0.32 and norm 3.73
       Hard sphere radius: 2.57003 bohrs
       Positions in reference frame:
         [ +0.000000 +0.000000 +0.000000 ]
     Initializing site 'H'
       Electron density: proportional to exp(-r/0.34641)*erfc((r-0)/0.390882) with norm 0.587
       Charge density: gaussian nuclear width 0.377945 with net site charge -0.413
       Polarizability: cuspless exponential with width 0.39 and norm 3.3
       Positions in reference frame:
         [ +0.000000 -1.441945 +1.122523 ]
         [ +0.000000 +1.441945 +1.122523 ]
     Net charge: 0   dipole magnitude: 0.927204
     Initializing spherical shell mfKernel with radius 2.61727 Bohr
     deltaS corrections:
       site 'O': -7.54299
       site 'H': -6.83917
   Initializing fluid molecule 'Na+'
     Initializing site 'Na'
       Electron density: proportional to exp(-r/0.19682)*erfc((r-0.71491)/0.41314) with norm 8.1383
       Charge density: gaussian nuclear width 0.365347 with net site charge -1
       Hard sphere radius: 1.86327 bohrs
       Positions in reference frame:
         [ +0.000000 +0.000000 +0.000000 ]
     Net charge: -1   dipole magnitude: 0
     Initializing gaussian mfKernel with width: 1.55004 Bohr
     deltaS corrections:
       site 'Na': -22.3555
   Initializing fluid molecule 'F-'
     Initializing site 'F'
       Electron density: proportional to exp(-r/0.38886)*erfc((r-0)/0.438782) with norm 8
       Charge density: gaussian nuclear width 0.374796 with net site charge 1
       Hard sphere radius: 2.39995 bohrs
       Positions in reference frame:
         [ +0.000000 +0.000000 +0.000000 ]
     Net charge: 1   dipole magnitude: 0
     Initializing gaussian mfKernel with width: 1.59012 Bohr
     deltaS corrections:
       site 'F': -9.04335

Correction to mu due to finite nuclear width = -0.0463682
   Cavity determined by nc: 0.00142 and sigma: 0.707107
   Nonlocal vdW cavity from gaussian model electron density with norm = 8 and sigma = 0.993594 bohr
   Charge asymmetry in cavity with sensitivity pCavity = 36.5 e-bohr/Eh
   Electrostatic cavity expanded by eta = 1.46 bohrs
   Weighted density cavitation model constrained by Nbulk: 0.0049383 bohr^-3, Pvap: 3.14029 kPa, Rvdw: 2.61727 bohr and sigmaBulk: 4.62e-05 Eh/bohr^2 at T: 298 K.
   Weighted density dispersion model using vdW pair potentials with single solvent site with sqrtC6eff: 0.77 SI.
Reading fluid state from 'common.fluidState'


---- Citations for features of the code used in this run ----

   Software package:
      R. Sundararaman, K. Letchworth-Weaver, K.A. Schwarz, D. Gunceler, Y. Ozhabes and T.A. Arias, 'JDFTx: software for joint density-functional theory', SoftwareX 6, 278 (2017)

   gga-PBEsol exchange-correlation functional:
      J.P. Perdew et al., Phys. Rev. Lett. 100, 136406 (2008)

   Pseudopotentials:
      KF Garrity, JW Bennett, KM Rabe and D Vanderbilt, Comput. Mater. Sci. 81, 446 (2014)

   Truncated Coulomb potentials:
      R. Sundararaman and T.A. Arias, Phys. Rev. B 87, 165122 (2013)

   Van der Waals correction pair-potentials:
      S. Grimme, J. Comput. Chem. 27, 1787 (2006)

   Charge-asymmetric nonlocally-determined local-electric (CANDLE) solvation model:
      R. Sundararaman and W.A. Goddard III, J. Chem. Phys. 142, 064107 (2015)

   Total energy minimization with Auxiliary Hamiltonian:
      C. Freysoldt, S. Boeck, and J. Neugebauer, Phys. Rev. B 79, 241103(R) (2009)

   Grand-canonical (fixed-potential) DFT:
      R. Sundararaman, W. A. Goddard III and T. A. Arias, J. Chem. Phys. 146, 114104 (2017)

This list may not be complete. Please suggest additional citations or
report any other bugs at https://github.com/shankar1729/jdftx/issues

Initialization completed successfully at t[s]:      4.73

Shifting auxilliary hamiltonian by 0.003761 to set nElectrons=80.175241
	Linear fluid (dielectric constant: 78.4, screening length: 5.74355 Bohr) occupying 0.617595 of unit cell:	Completed after 14 iterations at t[s]:      7.20

-------- Electronic minimization -----------
	Linear fluid (dielectric constant: 78.4, screening length: 5.74355 Bohr) occupying 0.617595 of unit cell:	Completed after 0 iterations at t[s]:      8.14
	FillingsUpdate:  mu: -0.172100000  nElectrons: 80.175241
ElecMinimize: Iter:   0  G: -431.385710899032460  |grad|_K:  1.491e-05  alpha:  1.000e+00
	Linear fluid (dielectric constant: 78.4, screening length: 5.74355 Bohr) occupying 0.644357 of unit cell:	Completed after 28 iterations at t[s]:     12.36
	Linear fluid (dielectric constant: 78.4, screening length: 5.74355 Bohr) occupying 0.618273 of unit cell:	Completed after 29 iterations at t[s]:     14.62
	FillingsUpdate:  mu: -0.172100000  nElectrons: 80.178508
	SubspaceRotationAdjust: set factor to 0.515
ElecMinimize: Iter:   1  G: -431.385715755079673  |grad|_K:  7.442e-06  alpha:  5.709e-03  linmin:  3.220e-02  t[s]:     16.25
	Linear fluid (dielectric constant: 78.4, screening length: 5.74355 Bohr) occupying 0.618337 of unit cell:	Completed after 14 iterations at t[s]:     18.09
ElecMinimize: 	Predicted alpha/alphaT>3.000000, increasing alphaT to 1.712651e-02.
	Linear fluid (dielectric constant: 78.4, screening length: 5.74355 Bohr) occupying 0.618463 of unit cell:	Completed after 15 iterations at t[s]:     19.89
	Linear fluid (dielectric constant: 78.4, screening length: 5.74355 Bohr) occupying 0.618714 of unit cell:	Completed after 14 iterations at t[s]:     21.64
	FillingsUpdate:  mu: -0.172100000  nElectrons: 80.180801
	SubspaceRotationAdjust: set factor to 0.262
ElecMinimize: Iter:   2  G: -431.385724229109428  |grad|_K:  4.880e-06  alpha:  4.006e-02  linmin:  1.214e-04  t[s]:     23.24
	Linear fluid (dielectric constant: 78.4, screening length: 5.74355 Bohr) occupying 0.619843 of unit cell:	Completed after 17 iterations at t[s]:     25.20
	Linear fluid (dielectric constant: 78.4, screening length: 5.74355 Bohr) occupying 0.619097 of unit cell:	Completed after 15 iterations at t[s]:     27.00
	FillingsUpdate:  mu: -0.172100000  nElectrons: 80.182729
	SubspaceRotationAdjust: set factor to 0.16
ElecMinimize: Iter:   3  G: -431.385725577502456  |grad|_K:  2.235e-06  alpha:  1.342e-02  linmin: -3.334e-04  t[s]:     28.60
	Linear fluid (dielectric constant: 78.4, screening length: 5.74355 Bohr) occupying 0.619119 of unit cell:	Completed after 5 iterations at t[s]:     30.15
ElecMinimize: 	Predicted alpha/alphaT>3.000000, increasing alphaT to 4.026272e-02.
	Linear fluid (dielectric constant: 78.4, screening length: 5.74355 Bohr) occupying 0.619164 of unit cell:	Completed after 8 iterations at t[s]:     31.69
ElecMinimize: 	Predicted alpha/alphaT>3.000000, increasing alphaT to 1.207881e-01.
	Linear fluid (dielectric constant: 78.4, screening length: 5.74355 Bohr) occupying 0.619296 of unit cell:	Completed after 14 iterations at t[s]:     33.42
ElecMinimize: 	Predicted alpha/alphaT>3.000000, increasing alphaT to 3.623644e-01.
	Linear fluid (dielectric constant: 78.4, screening length: 5.74355 Bohr) occupying 0.619779 of unit cell:	Completed after 15 iterations at t[s]:     35.23
	FillingsUpdate:  mu: -0.172100000  nElectrons: 80.186702
	SubspaceRotationAdjust: set factor to 0.105
	SubspaceRotationAdjust: resetting CG because factor has changed by 0.104691
	Linear fluid (dielectric constant: 78.4, screening length: 5.74355 Bohr) occupying 0.619779 of unit cell:	Completed after 0 iterations at t[s]:     37.53
ElecMinimize: 	State modified externally: resetting search direction.
ElecMinimize: Iter:   4  G: -431.385734387661955  |grad|_K:  2.040e-06  alpha:  4.191e-01
	Linear fluid (dielectric constant: 78.4, screening length: 5.74355 Bohr) occupying 0.621131 of unit cell:	Completed after 17 iterations at t[s]:     41.09
	Linear fluid (dielectric constant: 78.4, screening length: 5.74355 Bohr) occupying 0.619983 of unit cell:	Completed after 17 iterations at t[s]:     42.92
	FillingsUpdate:  mu: -0.172100000  nElectrons: 80.187752
	SubspaceRotationAdjust: set factor to 0.0762
ElecMinimize: Iter:   5  G: -431.385735470025168  |grad|_K:  1.458e-06  alpha:  6.188e-02  linmin: -5.337e-05  t[s]:     44.55
	Linear fluid (dielectric constant: 78.4, screening length: 5.74355 Bohr) occupying 0.619942 of unit cell:	Completed after 11 iterations at t[s]:     46.28
ElecMinimize: 	Predicted alpha/alphaT>3.000000, increasing alphaT to 1.856540e-01.
	Linear fluid (dielectric constant: 78.4, screening length: 5.74355 Bohr) occupying 0.619861 of unit cell:	Completed after 11 iterations at t[s]:     47.91
	Linear fluid (dielectric constant: 78.4, screening length: 5.74355 Bohr) occupying 0.619787 of unit cell:	Completed after 12 iterations at t[s]:     49.60
	FillingsUpdate:  mu: -0.172100000  nElectrons: 80.186850
	SubspaceRotationAdjust: set factor to 0.105
ElecMinimize: Iter:   6  G: -431.385738128058279  |grad|_K:  7.644e-07  alpha:  2.975e-01  linmin:  4.279e-05  t[s]:     51.23
	Linear fluid (dielectric constant: 78.4, screening length: 5.74355 Bohr) occupying 0.619785 of unit cell:	Completed after 11 iterations at t[s]:     52.94
	Linear fluid (dielectric constant: 78.4, screening length: 5.74355 Bohr) occupying 0.619782 of unit cell:	Completed after 12 iterations at t[s]:     54.66
	FillingsUpdate:  mu: -0.172100000  nElectrons: 80.186991
	SubspaceRotationAdjust: set factor to 0.111
ElecMinimize: Iter:   7  G: -431.385739737219865  |grad|_K:  8.498e-07  alpha:  6.557e-01  linmin:  3.554e-05  t[s]:     56.26
	Linear fluid (dielectric constant: 78.4, screening length: 5.74355 Bohr) occupying 0.620285 of unit cell:	Completed after 15 iterations at t[s]:     58.13
	Linear fluid (dielectric constant: 78.4, screening length: 5.74355 Bohr) occupying 0.620184 of unit cell:	Completed after 14 iterations at t[s]:     59.87
	FillingsUpdate:  mu: -0.172100000  nElectrons: 80.189341
	SubspaceRotationAdjust: set factor to 0.0595
ElecMinimize: Iter:   8  G: -431.385741325690617  |grad|_K:  2.315e-06  alpha:  5.229e-01  linmin:  5.066e-05  t[s]:     61.50
	Linear fluid (dielectric constant: 78.4, screening length: 5.74355 Bohr) occupying 0.620585 of unit cell:	Completed after 15 iterations at t[s]:     63.38
	Linear fluid (dielectric constant: 78.4, screening length: 5.74355 Bohr) occupying 0.620257 of unit cell:	Completed after 15 iterations at t[s]:     65.16
	FillingsUpdate:  mu: -0.172100000  nElectrons: 80.190122
	SubspaceRotationAdjust: set factor to 0.0531
ElecMinimize: Iter:   9  G: -431.385743425597468  |grad|_K:  1.003e-06  alpha:  9.301e-02  linmin: -8.516e-05  t[s]:     66.80
	Linear fluid (dielectric constant: 78.4, screening length: 5.74355 Bohr) occupying 0.620293 of unit cell:	Completed after 8 iterations at t[s]:     68.41
ElecMinimize: 	Predicted alpha/alphaT>3.000000, increasing alphaT to 2.790283e-01.
	Linear fluid (dielectric constant: 78.4, screening length: 5.74355 Bohr) occupying 0.620365 of unit cell:	Completed after 11 iterations at t[s]:     70.04
	Linear fluid (dielectric constant: 78.4, screening length: 5.74355 Bohr) occupying 0.620507 of unit cell:	Completed after 14 iterations at t[s]:     71.79
	FillingsUpdate:  mu: -0.172100000  nElectrons: 80.192031
	SubspaceRotationAdjust: set factor to 0.0589
ElecMinimize: Iter:  10  G: -431.385746168867229  |grad|_K:  1.022e-06  alpha:  6.475e-01  linmin:  6.623e-05  t[s]:     73.42
	Linear fluid (dielectric constant: 78.4, screening length: 5.74355 Bohr) occupying 0.621418 of unit cell:	Completed after 16 iterations at t[s]:     75.32
	Linear fluid (dielectric constant: 78.4, screening length: 5.74355 Bohr) occupying 0.620724 of unit cell:	Completed after 16 iterations at t[s]:     77.15
	FillingsUpdate:  mu: -0.172100000  nElectrons: 80.193327
	SubspaceRotationAdjust: set factor to 0.041
ElecMinimize: Iter:  11  G: -431.385746833645555  |grad|_K:  9.507e-07  alpha:  1.517e-01  linmin: -4.636e-06  t[s]:     78.76
	Linear fluid (dielectric constant: 78.4, screening length: 5.74355 Bohr) occupying 0.620740 of unit cell:	Completed after 12 iterations at t[s]:     80.54
	Linear fluid (dielectric constant: 78.4, screening length: 5.74355 Bohr) occupying 0.620764 of unit cell:	Completed after 13 iterations at t[s]:     82.25
	FillingsUpdate:  mu: -0.172100000  nElectrons: 80.193884
	SubspaceRotationAdjust: set factor to 0.0427
ElecMinimize: Iter:  12  G: -431.385748216021568  |grad|_K:  5.470e-07  alpha:  3.642e-01  linmin:  5.107e-05  t[s]:     83.85
	Linear fluid (dielectric constant: 78.4, screening length: 5.74355 Bohr) occupying 0.620791 of unit cell:	Completed after 4 iterations at t[s]:     85.35
	Linear fluid (dielectric constant: 78.4, screening length: 5.74355 Bohr) occupying 0.620804 of unit cell:	Completed after 2 iterations at t[s]:     86.71
	FillingsUpdate:  mu: -0.172100000  nElectrons: 80.194277
	SubspaceRotationAdjust: set factor to 0.0475
ElecMinimize: Iter:  13  G: -431.385748892683807  |grad|_K:  3.353e-07  alpha:  5.388e-01  linmin: -5.914e-06  t[s]:     88.33
	Linear fluid (dielectric constant: 78.4, screening length: 5.74355 Bohr) occupying 0.620840 of unit cell:	Completed after 11 iterations at t[s]:     90.08
	Linear fluid (dielectric constant: 78.4, screening length: 5.74355 Bohr) occupying 0.620839 of unit cell:	Completed after 0 iterations at t[s]:     91.32
	FillingsUpdate:  mu: -0.172100000  nElectrons: 80.194540
	SubspaceRotationAdjust: set factor to 0.0417
ElecMinimize: Iter:  14  G: -431.385749141524968  |grad|_K:  2.844e-07  alpha:  5.262e-01  linmin:  5.831e-04  t[s]:     92.91
	Linear fluid (dielectric constant: 78.4, screening length: 5.74355 Bohr) occupying 0.620711 of unit cell:	Completed after 14 iterations at t[s]:     94.76
	Linear fluid (dielectric constant: 78.4, screening length: 5.74355 Bohr) occupying 0.620796 of unit cell:	Completed after 14 iterations at t[s]:     96.50
	FillingsUpdate:  mu: -0.172100000  nElectrons: 80.194331
	SubspaceRotationAdjust: set factor to 0.0293
ElecMinimize: Iter:  15  G: -431.385749200025941  |grad|_K:  2.448e-07  alpha:  1.780e-01  linmin:  3.405e-04  t[s]:     98.12
	Linear fluid (dielectric constant: 78.4, screening length: 5.74355 Bohr) occupying 0.620804 of unit cell:	Completed after 7 iterations at t[s]:     99.74
	Linear fluid (dielectric constant: 78.4, screening length: 5.74355 Bohr) occupying 0.620814 of unit cell:	Completed after 8 iterations at t[s]:    101.29
	FillingsUpdate:  mu: -0.172100000  nElectrons: 80.194460
	SubspaceRotationAdjust: set factor to 0.0421
ElecMinimize: Iter:  16  G: -431.385749295478035  |grad|_K:  1.640e-07  alpha:  3.839e-01  linmin:  4.291e-04  t[s]:    102.91
	Linear fluid (dielectric constant: 78.4, screening length: 5.74355 Bohr) occupying 0.620831 of unit cell:	Completed after 8 iterations at t[s]:    104.55
	Linear fluid (dielectric constant: 78.4, screening length: 5.74355 Bohr) occupying 0.620840 of unit cell:	Completed after 6 iterations at t[s]:    106.05
	FillingsUpdate:  mu: -0.172100000  nElectrons: 80.194632
	SubspaceRotationAdjust: set factor to 0.0409
ElecMinimize: Iter:  17  G: -431.385749363586797  |grad|_K:  1.796e-07  alpha:  6.055e-01  linmin: -2.944e-04  t[s]:    107.52
	Linear fluid (dielectric constant: 78.4, screening length: 5.74355 Bohr) occupying 0.620780 of unit cell:	Completed after 13 iterations at t[s]:    108.93
	Linear fluid (dielectric constant: 78.4, screening length: 5.74355 Bohr) occupying 0.620817 of unit cell:	Completed after 12 iterations at t[s]:    110.30
	FillingsUpdate:  mu: -0.172100000  nElectrons: 80.194525
	SubspaceRotationAdjust: set factor to 0.0311
ElecMinimize: Iter:  18  G: -431.385749396473045  |grad|_K:  1.757e-07  alpha:  2.342e-01  linmin: -1.317e-04  t[s]:    111.54
	Linear fluid (dielectric constant: 78.4, screening length: 5.74355 Bohr) occupying 0.620832 of unit cell:	Completed after 8 iterations at t[s]:    112.82
	Linear fluid (dielectric constant: 78.4, screening length: 5.74355 Bohr) occupying 0.620846 of unit cell:	Completed after 7 iterations at t[s]:    114.03
	FillingsUpdate:  mu: -0.172100000  nElectrons: 80.194719
	SubspaceRotationAdjust: set factor to 0.0354
ElecMinimize: Iter:  19  G: -431.385749454761822  |grad|_K:  1.358e-07  alpha:  4.506e-01  linmin:  3.325e-04  t[s]:    115.32
	Linear fluid (dielectric constant: 78.4, screening length: 5.74355 Bohr) occupying 0.620862 of unit cell:	Completed after 8 iterations at t[s]:    116.62
	Linear fluid (dielectric constant: 78.4, screening length: 5.74355 Bohr) occupying 0.620867 of unit cell:	Completed after 2 iterations at t[s]:    117.70
	FillingsUpdate:  mu: -0.172100000  nElectrons: 80.194864
	SubspaceRotationAdjust: set factor to 0.0372
ElecMinimize: Iter:  20  G: -431.385749501265366  |grad|_K:  1.336e-07  alpha:  6.039e-01  linmin: -4.262e-04  t[s]:    119.02
	Linear fluid (dielectric constant: 78.4, screening length: 5.74355 Bohr) occupying 0.620825 of unit cell:	Completed after 12 iterations at t[s]:    120.46
	Linear fluid (dielectric constant: 78.4, screening length: 5.74355 Bohr) occupying 0.620844 of unit cell:	Completed after 11 iterations at t[s]:    121.81
	FillingsUpdate:  mu: -0.172100000  nElectrons: 80.194763
	SubspaceRotationAdjust: set factor to 0.0298
ElecMinimize: Iter:  21  G: -431.385749527842847  |grad|_K:  1.513e-07  alpha:  3.388e-01  linmin:  2.012e-04  t[s]:    123.10
	Linear fluid (dielectric constant: 78.4, screening length: 5.74355 Bohr) occupying 0.620859 of unit cell:	Completed after 11 iterations at t[s]:    124.49
	Linear fluid (dielectric constant: 78.4, screening length: 5.74355 Bohr) occupying 0.620862 of unit cell:	Completed after 2 iterations at t[s]:    125.55
	FillingsUpdate:  mu: -0.172100000  nElectrons: 80.194901
	SubspaceRotationAdjust: set factor to 0.0312
ElecMinimize: Iter:  22  G: -431.385749565886783  |grad|_K:  1.187e-07  alpha:  3.987e-01  linmin: -3.405e-04  t[s]:    126.83
	Linear fluid (dielectric constant: 78.4, screening length: 5.74355 Bohr) occupying 0.620864 of unit cell:	Completed after 3 iterations at t[s]:    127.97
	Linear fluid (dielectric constant: 78.4, screening length: 5.74355 Bohr) occupying 0.620866 of unit cell:	Completed after 3 iterations at t[s]:    129.06
	FillingsUpdate:  mu: -0.172100000  nElectrons: 80.194962
	SubspaceRotationAdjust: set factor to 0.037
ElecMinimize: Iter:  23  G: -431.385749608411743  |grad|_K:  1.301e-07  alpha:  7.078e-01  linmin: -1.091e-04  t[s]:    130.35
	Linear fluid (dielectric constant: 78.4, screening length: 5.74355 Bohr) occupying 0.620817 of unit cell:	Completed after 12 iterations at t[s]:    131.76
	Linear fluid (dielectric constant: 78.4, screening length: 5.74355 Bohr) occupying 0.620837 of unit cell:	Completed after 11 iterations at t[s]:    133.10
	FillingsUpdate:  mu: -0.172100000  nElectrons: 80.194840
	SubspaceRotationAdjust: set factor to 0.0292
ElecMinimize: Iter:  24  G: -431.385749639114181  |grad|_K:  1.594e-07  alpha:  4.190e-01  linmin:  1.324e-04  t[s]:    134.42
	Linear fluid (dielectric constant: 78.4, screening length: 5.74355 Bohr) occupying 0.620857 of unit cell:	Completed after 11 iterations at t[s]:    135.82
	Linear fluid (dielectric constant: 78.4, screening length: 5.74355 Bohr) occupying 0.620852 of unit cell:	Completed after 5 iterations at t[s]:    136.99
	FillingsUpdate:  mu: -0.172100000  nElectrons: 80.194959
	SubspaceRotationAdjust: set factor to 0.0225
ElecMinimize: Iter:  25  G: -431.385749673577209  |grad|_K:  1.211e-07  alpha:  3.232e-01  linmin:  3.002e-04  t[s]:    138.32
	Linear fluid (dielectric constant: 78.4, screening length: 5.74355 Bohr) occupying 0.620844 of unit cell:	Completed after 6 iterations at t[s]:    139.57
	Linear fluid (dielectric constant: 78.4, screening length: 5.74355 Bohr) occupying 0.620837 of unit cell:	Completed after 2 iterations at t[s]:    140.64
	FillingsUpdate:  mu: -0.172100000  nElectrons: 80.194920
	SubspaceRotationAdjust: set factor to 0.0246
ElecMinimize: Iter:  26  G: -431.385749709542495  |grad|_K:  8.954e-08  alpha:  5.794e-01  linmin: -1.035e-03  t[s]:    141.94
	Linear fluid (dielectric constant: 78.4, screening length: 5.74355 Bohr) occupying 0.620827 of unit cell:	Completed after 7 iterations at t[s]:    143.21
	Linear fluid (dielectric constant: 78.4, screening length: 5.74355 Bohr) occupying 0.620828 of unit cell:	Completed after 0 iterations at t[s]:    144.19
	FillingsUpdate:  mu: -0.172100000  nElectrons: 80.194892
	SubspaceRotationAdjust: set factor to 0.0248
ElecMinimize: Iter:  27  G: -431.385749727512803  |grad|_K:  8.173e-08  alpha:  5.124e-01  linmin: -4.729e-04  t[s]:    145.47
	Linear fluid (dielectric constant: 78.4, screening length: 5.74355 Bohr) occupying 0.620847 of unit cell:	Completed after 11 iterations at t[s]:    146.86
	Linear fluid (dielectric constant: 78.4, screening length: 5.74355 Bohr) occupying 0.620838 of unit cell:	Completed after 8 iterations at t[s]:    148.14
	FillingsUpdate:  mu: -0.172100000  nElectrons: 80.194953
	SubspaceRotationAdjust: set factor to 0.0178
ElecMinimize: Iter:  28  G: -431.385749734943715  |grad|_K:  6.438e-08  alpha:  2.669e-01  linmin:  4.494e-04  t[s]:    149.44
	Linear fluid (dielectric constant: 78.4, screening length: 5.74355 Bohr) occupying 0.620833 of unit cell:	Completed after 2 iterations at t[s]:    150.57
	Linear fluid (dielectric constant: 78.4, screening length: 5.74355 Bohr) occupying 0.620831 of unit cell:	Completed after 0 iterations at t[s]:    151.56
	FillingsUpdate:  mu: -0.172100000  nElectrons: 80.194923
	SubspaceRotationAdjust: set factor to 0.0281
ElecMinimize: Iter:  29  G: -431.385749741661130  |grad|_K:  4.661e-08  alpha:  3.742e-01  linmin: -3.662e-03  t[s]:    152.85
ElecMinimize: Converged (|Delta G|<1.000000e-08 for 2 iters).
Setting wave functions to eigenvectors of Hamiltonian

# Ionic positions in lattice coordinates:
ion Pt   0.333333333333333  -0.333333333333333  -0.237676000000000 1
ion Pt  -0.333333333333333   0.333333333333333  -0.118838000000000 1
ion Pt   0.000000000000000   0.000000000000000   0.000000000000000 1
ion Pt   0.333333333333333  -0.333333333333333   0.118838000000000 1
ion Pt  -0.333333333333333   0.333333333333333   0.237676000000000 1


# Forces in Lattice coordinates:
force Pt  -0.000000000000000  -0.000000000000000  -0.060418240073423 1
force Pt   0.000000000000000  -0.000000000000000   0.098519896606760 1
force Pt   0.000000000000000   0.000000000000000  -0.000000000000000 1
force Pt   0.000000000000000   0.000000000000000  -0.098519896606760 1
force Pt   0.000000000000000  -0.000000000000000   0.060418240071604 1

# Energy components:
   A_diel =       -0.0677467888197278
   Eewald =     4702.9680318706023172
       EH =     5114.8954052174649405
     Eloc =   -10339.7230304670501937
      Enl =       -5.2753604603045190
      Exc =     -141.6112287682465478
 Exc_core =       81.2082896017070937
       KE =      142.4833537458936235
  MuShift =       -0.0090382225579960
-------------------------------------
     Etot =     -445.1313242713103477
       TS =        0.0559716956651368
-------------------------------------
        F =     -445.1872959669755119
      muN =      -13.8015462253144019
-------------------------------------
        G =     -431.3857497416611295

IonicMinimize: Iter:   0  G: -431.385749741661130  |grad|_K:  1.172e-03  t[s]:    153.35
IonicMinimize: None of the convergence criteria satisfied after 0 iterations.

#--- Lowdin population analysis ---
# oxidation-state Pt -0.088 +0.009 +0.014 +0.009 -0.088


Dumping 'common.fillings' ... done
Dumping 'common.wfns' ... done
Dumping 'common.fluidState' ... done
Dumping 'common.eigenvals' ... done
Dumping 'common.nbound' ... done
End date and time: Tue Mar 19 06:56:03 2019  (Duration: 0-0:02:33.58)
Done!
