
*************** JDFTx 1.4.2  ***************

Start date and time: Tue Mar 19 06:43:50 2019
Executable jdftx with command-line: -i Charged.in
Running on hosts (process indices):  Juans-MBP.lan1 (0-3)
Divided in process groups (process indices):  0 (0)  1 (1)  2 (2)  3 (3)
Resource initialization completed at t[s]:      0.00
Run totals: 4 processes, 12 threads, 0 GPUs


Input parsed successfully to the following command list (including defaults):

basis kpoint-dependent
coords-type Lattice
core-overlap-check vector
coulomb-interaction Slab 001
coulomb-truncation-embed 0 0 0
davidson-band-ratio 1.1
dump End State BoundCharge
dump-name common.$VAR
elec-cutoff 20 100
elec-eigen-algo Davidson
elec-ex-corr gga-PBEsol
elec-smearing Fermi 0.01
electronic-minimize  \
	dirUpdateScheme      FletcherReeves \
	linminMethod         DirUpdateRecommended \
	nIterations          200 \
	history              15 \
	knormThreshold       0 \
	energyDiffThreshold  1e-08 \
	nEnergyDiff          2 \
	alphaTstart          1 \
	alphaTmin            1e-10 \
	updateTestStepSize   yes \
	alphaTreduceFactor   0.1 \
	alphaTincreaseFactor 3 \
	nAlphaAdjustMax      3 \
	wolfeEnergy          0.0001 \
	wolfeGradient        0.9 \
	fdTest               no
exchange-regularization WignerSeitzTruncated
fluid LinearPCM 298.000000 1.013250
fluid-anion F- 1 MeanFieldLJ \
	epsBulk 1 \
	pMol 0 \
	epsInf 1 \
	Pvap 0 \
	sigmaBulk 0 \
	Rvdw 2.24877 \
	Res 0
fluid-cation Na+ 1 MeanFieldLJ \
	epsBulk 1 \
	pMol 0 \
	epsInf 1 \
	Pvap 0 \
	sigmaBulk 0 \
	Rvdw 2.19208 \
	Res 0
fluid-ex-corr lda-TF lda-PZ
fluid-gummel-loop 10 1.000000e-05
fluid-minimize  \
	dirUpdateScheme      PolakRibiere \
	linminMethod         DirUpdateRecommended \
	nIterations          400 \
	history              15 \
	knormThreshold       1e-11 \
	energyDiffThreshold  0 \
	nEnergyDiff          2 \
	alphaTstart          1 \
	alphaTmin            1e-10 \
	updateTestStepSize   yes \
	alphaTreduceFactor   0.1 \
	alphaTincreaseFactor 3 \
	nAlphaAdjustMax      6 \
	wolfeEnergy          0.0001 \
	wolfeGradient        0.9 \
	fdTest               no
fluid-solvent H2O 55.338 ScalarEOS \
	epsBulk 78.4 \
	pMol 0.92466 \
	epsInf 1.77 \
	Pvap 1.06736e-10 \
	sigmaBulk 4.62e-05 \
	Rvdw 2.61727 \
	Res 1.42
forces-output-coords Positions
initial-state common.$VAR
ion Pt   0.333333000000000  -0.333333000000000  -0.237676000000000 1
ion Pt  -0.333333000000000   0.333333000000000  -0.118838000000000 1
ion Pt   0.000000000000000   0.000000000000000   0.000000000000000 1
ion Pt   0.333333000000000  -0.333333000000000   0.118838000000000 1
ion Pt  -0.333333000000000   0.333333000000000   0.237676000000000 1
ion-species GBRV/$ID_pbesol.uspp
ion-width Ecut
ionic-minimize  \
	dirUpdateScheme      L-BFGS \
	linminMethod         DirUpdateRecommended \
	nIterations          0 \
	history              15 \
	knormThreshold       0.0001 \
	energyDiffThreshold  1e-06 \
	nEnergyDiff          2 \
	alphaTstart          1 \
	alphaTmin            1e-10 \
	updateTestStepSize   yes \
	alphaTreduceFactor   0.1 \
	alphaTincreaseFactor 3 \
	nAlphaAdjustMax      3 \
	wolfeEnergy          0.0001 \
	wolfeGradient        0.9 \
	fdTest               no
kpoint   0.000000000000   0.000000000000   0.000000000000  1.00000000000000
kpoint-folding 12 12 1 
latt-move-scale 1 1 1
latt-scale 1 1 1 
lattice Hexagonal 5.23966 36
lattice-minimize  \
	dirUpdateScheme      L-BFGS \
	linminMethod         DirUpdateRecommended \
	nIterations          0 \
	history              15 \
	knormThreshold       0 \
	energyDiffThreshold  1e-06 \
	nEnergyDiff          2 \
	alphaTstart          1 \
	alphaTmin            1e-10 \
	updateTestStepSize   yes \
	alphaTreduceFactor   0.1 \
	alphaTincreaseFactor 3 \
	nAlphaAdjustMax      3 \
	wolfeEnergy          0.0001 \
	wolfeGradient        0.9 \
	fdTest               no
lcao-params -1 1e-06 0.01
pcm-variant CANDLE
spintype no-spin
subspace-rotation-factor 1 yes
symmetries automatic
symmetry-threshold 0.0001
target-mu -0.1831 no




---------- Setting up symmetries ----------

Found 24 point-group symmetries of the bravais lattice
Found 12 space-group symmetries with basis
Applied RMS atom displacement 2.70575e-06 bohrs to make symmetries exact.

---------- Initializing the Grid ----------
R = 
[    5.23966   -2.61983          0  ]
[          0    4.53768          0  ]
[          0          0         36  ]
unit cell volume = 855.932
G =
[    1.19916   0.692335         -0  ]
[          0    1.38467          0  ]
[          0         -0   0.174533  ]
Minimum fftbox size, Smin = [  24  24  164  ]
Chosen fftbox size, S = [  24  24  168  ]

---------- Initializing tighter grid for wavefunction operations ----------
R = 
[    5.23966   -2.61983          0  ]
[          0    4.53768          0  ]
[          0          0         36  ]
unit cell volume = 855.932
G =
[    1.19916   0.692335         -0  ]
[          0    1.38467          0  ]
[          0         -0   0.174533  ]
Minimum fftbox size, Smin = [  24  24  148  ]
Chosen fftbox size, S = [  24  24  150  ]

---------- Exchange Correlation functional ----------
Initalized PBEsol GGA exchange.
Initalized PBEsol GGA correlation.

---------- Setting up pseudopotentials ----------
Width of ionic core gaussian charges (only for fluid interactions / plotting) set to 0.397384

Reading pseudopotential file '/Users/juanmendezvalderrama/Documents/JDFTX/build/pseudopotentials/GBRV/pt_pbesol.uspp':
  Title: Pt.  Created by USPP 7.3.6 on 22-9-15
  Reference state energy: -104.899005.  16 valence electrons in orbitals:
    |510>  occupation: 6  eigenvalue: -2.158847
    |520>  occupation: 9.5  eigenvalue: -0.336311
    |600>  occupation: 0  eigenvalue: -0.320324
    |610>  occupation: 0  eigenvalue: -0.119800
  lMax: 2  lLocal: 3  QijEcut: 5.5
  6 projectors sampled on a log grid with 745 points:
    l: 0  eig: -0.320324  rCut: 2.45
    l: 0  eig: 1.500000  rCut: 2.45
    l: 1  eig: -2.158847  rCut: 1.6
    l: 1  eig: -0.119800  rCut: 1.6
    l: 2  eig: -0.500000  rCut: 1.6
    l: 2  eig: -0.336311  rCut: 1.6
  Partial core density with radius 1.1
  Transforming core density to a uniform radial grid of dG=0.02 with 1620 points.
  Transforming local potential to a uniform radial grid of dG=0.02 with 1620 points.
  Transforming nonlocal projectors to a uniform radial grid of dG=0.02 with 432 points.
  Transforming density augmentations to a uniform radial grid of dG=0.02 with 1620 points.
  Transforming atomic orbitals to a uniform radial grid of dG=0.02 with 432 points.
  Core radius for overlap checks: 2.45 bohrs.

Initialized 1 species with 5 total atoms.

Folded 1 k-points by 12x12x1 to 144 k-points.

---------- Setting up k-points, bands, fillings ----------
Reduced to 19 k-points under symmetry. 
Computing the number of bands and number of electrons
Reading initial fillings from file common.fillings.
nElectrons:  80.067058   nBands: 60   nStates: 19

----- Setting up reduced wavefunction bases (one per k-point) -----
average nbasis = 3657.132 , ideal nbasis = 3656.607

---------- Setting up coulomb interaction ----------
Fluid mode embedding: using embedded box, but periodic Coulomb kernel.
(Fluid response is responsible for (approximate) separation between periodic images.)
Setting up double-sized grid for truncated Coulomb potentials:
R = 
[    5.23966   -2.61983          0  ]
[          0    4.53768          0  ]
[          0          0         72  ]
unit cell volume = 1711.86
G =
[    1.19916   0.692335         -0  ]
[          0    1.38467          0  ]
[          0         -0  0.0872665  ]
Chosen fftbox size, S = [  24  24  336  ]
Integer grid location selected as the embedding center:
   Grid: [  0  0  0  ]
   Lattice: [  0  0  0  ]
   Cartesian: [  0  0  0  ]
Constructing Wigner-Seitz cell: 8 faces (6 quadrilaterals, 2 hexagons)
Range-separation parameter for embedded mesh potentials due to point charges: 0.589462 bohrs.

Initializing van der Waals corrections
	NOTE: vdW corrections apply only for interactions with fluid.
	Pt:  C6:  815.23 Eh-a0^6  R0: 3.326 a0 (WARNING: beyond Grimme's data set)

---------- Setting up ewald sum ----------
Optimum gaussian width for ewald sums = 3.649540 bohr.
Real space sum over 1805 unit cells with max indices [  9  9  2  ]
Reciprocal space sum over 5103 terms with max indices [  4  4  31  ]

---------- Allocating electronic variables ----------
Initializing wave functions:  reading from 'common.wfns'
----- createFluidSolver() ----- (Fluid-side solver setup)
   Initializing fluid molecule 'H2O'
     Initializing site 'O'
       Electron density: proportional to exp(-r/0.36935)*erfc((r-0.51523)/0.36823) with norm 6.826
       Charge density: gaussian nuclear width 0.478731 with net site charge 0.826
       Polarizability: cuspless exponential with width 0.32 and norm 3.73
       Hard sphere radius: 2.57003 bohrs
       Positions in reference frame:
         [ +0.000000 +0.000000 +0.000000 ]
     Initializing site 'H'
       Electron density: proportional to exp(-r/0.34641)*erfc((r-0)/0.390882) with norm 0.587
       Charge density: gaussian nuclear width 0.377945 with net site charge -0.413
       Polarizability: cuspless exponential with width 0.39 and norm 3.3
       Positions in reference frame:
         [ +0.000000 -1.441945 +1.122523 ]
         [ +0.000000 +1.441945 +1.122523 ]
     Net charge: 0   dipole magnitude: 0.927204
     Initializing spherical shell mfKernel with radius 2.61727 Bohr
     deltaS corrections:
       site 'O': -7.54299
       site 'H': -6.83917
   Initializing fluid molecule 'Na+'
     Initializing site 'Na'
       Electron density: proportional to exp(-r/0.19682)*erfc((r-0.71491)/0.41314) with norm 8.1383
       Charge density: gaussian nuclear width 0.365347 with net site charge -1
       Hard sphere radius: 1.86327 bohrs
       Positions in reference frame:
         [ +0.000000 +0.000000 +0.000000 ]
     Net charge: -1   dipole magnitude: 0
     Initializing gaussian mfKernel with width: 1.55004 Bohr
     deltaS corrections:
       site 'Na': -22.3555
   Initializing fluid molecule 'F-'
     Initializing site 'F'
       Electron density: proportional to exp(-r/0.38886)*erfc((r-0)/0.438782) with norm 8
       Charge density: gaussian nuclear width 0.374796 with net site charge 1
       Hard sphere radius: 2.39995 bohrs
       Positions in reference frame:
         [ +0.000000 +0.000000 +0.000000 ]
     Net charge: 1   dipole magnitude: 0
     Initializing gaussian mfKernel with width: 1.59012 Bohr
     deltaS corrections:
       site 'F': -9.04335

Correction to mu due to finite nuclear width = -0.0463682
   Cavity determined by nc: 0.00142 and sigma: 0.707107
   Nonlocal vdW cavity from gaussian model electron density with norm = 8 and sigma = 0.993594 bohr
   Charge asymmetry in cavity with sensitivity pCavity = 36.5 e-bohr/Eh
   Electrostatic cavity expanded by eta = 1.46 bohrs
   Weighted density cavitation model constrained by Nbulk: 0.0049383 bohr^-3, Pvap: 3.14029 kPa, Rvdw: 2.61727 bohr and sigmaBulk: 4.62e-05 Eh/bohr^2 at T: 298 K.
   Weighted density dispersion model using vdW pair potentials with single solvent site with sqrtC6eff: 0.77 SI.
Reading fluid state from 'common.fluidState'


---- Citations for features of the code used in this run ----

   Software package:
      R. Sundararaman, K. Letchworth-Weaver, K.A. Schwarz, D. Gunceler, Y. Ozhabes and T.A. Arias, 'JDFTx: software for joint density-functional theory', SoftwareX 6, 278 (2017)

   gga-PBEsol exchange-correlation functional:
      J.P. Perdew et al., Phys. Rev. Lett. 100, 136406 (2008)

   Pseudopotentials:
      KF Garrity, JW Bennett, KM Rabe and D Vanderbilt, Comput. Mater. Sci. 81, 446 (2014)

   Truncated Coulomb potentials:
      R. Sundararaman and T.A. Arias, Phys. Rev. B 87, 165122 (2013)

   Van der Waals correction pair-potentials:
      S. Grimme, J. Comput. Chem. 27, 1787 (2006)

   Charge-asymmetric nonlocally-determined local-electric (CANDLE) solvation model:
      R. Sundararaman and W.A. Goddard III, J. Chem. Phys. 142, 064107 (2015)

   Total energy minimization with Auxiliary Hamiltonian:
      C. Freysoldt, S. Boeck, and J. Neugebauer, Phys. Rev. B 79, 241103(R) (2009)

   Grand-canonical (fixed-potential) DFT:
      R. Sundararaman, W. A. Goddard III and T. A. Arias, J. Chem. Phys. 146, 114104 (2017)

This list may not be complete. Please suggest additional citations or
report any other bugs at https://github.com/shankar1729/jdftx/issues

Initialization completed successfully at t[s]:      3.18

Shifting auxilliary hamiltonian by 0.003740 to set nElectrons=80.067058
	Linear fluid (dielectric constant: 78.4, screening length: 5.74355 Bohr) occupying 0.597598 of unit cell:	Completed after 13 iterations at t[s]:      5.10

-------- Electronic minimization -----------
	Linear fluid (dielectric constant: 78.4, screening length: 5.74355 Bohr) occupying 0.597598 of unit cell:	Completed after 0 iterations at t[s]:      5.91
	FillingsUpdate:  mu: -0.183100000  nElectrons: 80.067058
ElecMinimize: Iter:   0  G: -430.503902695917134  |grad|_K:  1.098e-05  alpha:  1.000e+00
	Linear fluid (dielectric constant: 78.4, screening length: 5.74355 Bohr) occupying 0.644210 of unit cell:	Completed after 33 iterations at t[s]:      9.52
	Linear fluid (dielectric constant: 78.4, screening length: 5.74355 Bohr) occupying 0.598192 of unit cell:	Completed after 25 iterations at t[s]:     11.37
	FillingsUpdate:  mu: -0.183100000  nElectrons: 80.070498
	SubspaceRotationAdjust: set factor to 0.51
ElecMinimize: Iter:   1  G: -430.503906683387811  |grad|_K:  1.092e-05  alpha:  9.073e-03  linmin:  2.399e-02  t[s]:     12.68
	Linear fluid (dielectric constant: 78.4, screening length: 5.74355 Bohr) occupying 0.598402 of unit cell:	Completed after 13 iterations at t[s]:     14.15
	Linear fluid (dielectric constant: 78.4, screening length: 5.74355 Bohr) occupying 0.598752 of unit cell:	Completed after 14 iterations at t[s]:     15.64
	FillingsUpdate:  mu: -0.183100000  nElectrons: 80.073739
	SubspaceRotationAdjust: set factor to 0.333
ElecMinimize: Iter:   2  G: -430.503917114239016  |grad|_K:  2.655e-06  alpha:  2.390e-02  linmin: -2.759e-04  t[s]:     16.94
	Linear fluid (dielectric constant: 78.4, screening length: 5.74355 Bohr) occupying 0.598672 of unit cell:	Completed after 11 iterations at t[s]:     18.34
	Linear fluid (dielectric constant: 78.4, screening length: 5.74355 Bohr) occupying 0.598609 of unit cell:	Completed after 12 iterations at t[s]:     19.72
	FillingsUpdate:  mu: -0.183100000  nElectrons: 80.073061
	SubspaceRotationAdjust: set factor to 0.175
ElecMinimize: Iter:   3  G: -430.503918378010496  |grad|_K:  4.349e-06  alpha:  4.265e-02  linmin:  1.468e-04  t[s]:     21.03
	Linear fluid (dielectric constant: 78.4, screening length: 5.74355 Bohr) occupying 0.598879 of unit cell:	Completed after 13 iterations at t[s]:     22.51
ElecMinimize: 	Predicted alpha/alphaT>3.000000, increasing alphaT to 1.279624e-01.
	Linear fluid (dielectric constant: 78.4, screening length: 5.74355 Bohr) occupying 0.599439 of unit cell:	Completed after 14 iterations at t[s]:     23.97
	Linear fluid (dielectric constant: 78.4, screening length: 5.74355 Bohr) occupying 0.599776 of unit cell:	Completed after 13 iterations at t[s]:     25.42
	FillingsUpdate:  mu: -0.183100000  nElectrons: 80.080380
	SubspaceRotationAdjust: set factor to 0.132
	SubspaceRotationAdjust: resetting CG because factor has changed by 0.131502
	Linear fluid (dielectric constant: 78.4, screening length: 5.74355 Bohr) occupying 0.599776 of unit cell:	Completed after 0 iterations at t[s]:     27.39
ElecMinimize: 	State modified externally: resetting search direction.
ElecMinimize: Iter:   4  G: -430.503932507620220  |grad|_K:  2.885e-06  alpha:  1.775e-01
	Linear fluid (dielectric constant: 78.4, screening length: 5.74355 Bohr) occupying 0.600772 of unit cell:	Completed after 14 iterations at t[s]:     30.25
	Linear fluid (dielectric constant: 78.4, screening length: 5.74355 Bohr) occupying 0.600126 of unit cell:	Completed after 14 iterations at t[s]:     31.72
	FillingsUpdate:  mu: -0.183100000  nElectrons: 80.082137
	SubspaceRotationAdjust: set factor to 0.0549
ElecMinimize: Iter:   5  G: -430.503934709072439  |grad|_K:  2.517e-06  alpha:  6.320e-02  linmin:  4.969e-04  t[s]:     33.01
	Linear fluid (dielectric constant: 78.4, screening length: 5.74355 Bohr) occupying 0.600102 of unit cell:	Completed after 13 iterations at t[s]:     34.48
	Linear fluid (dielectric constant: 78.4, screening length: 5.74355 Bohr) occupying 0.600066 of unit cell:	Completed after 14 iterations at t[s]:     35.96
	FillingsUpdate:  mu: -0.183100000  nElectrons: 80.081942
	SubspaceRotationAdjust: set factor to 0.0697
ElecMinimize: Iter:   6  G: -430.503938885148557  |grad|_K:  8.026e-07  alpha:  1.574e-01  linmin:  4.143e-04  t[s]:     37.29
	Linear fluid (dielectric constant: 78.4, screening length: 5.74355 Bohr) occupying 0.600062 of unit cell:	Completed after 6 iterations at t[s]:     38.52
ElecMinimize: 	Predicted alpha/alphaT>3.000000, increasing alphaT to 4.723057e-01.
	Linear fluid (dielectric constant: 78.4, screening length: 5.74355 Bohr) occupying 0.600053 of unit cell:	Completed after 9 iterations at t[s]:     39.83
	Linear fluid (dielectric constant: 78.4, screening length: 5.74355 Bohr) occupying 0.600046 of unit cell:	Completed after 9 iterations at t[s]:     41.16
	FillingsUpdate:  mu: -0.183100000  nElectrons: 80.081982
	SubspaceRotationAdjust: set factor to 0.0881
ElecMinimize: Iter:   7  G: -430.503940894470986  |grad|_K:  8.919e-07  alpha:  7.432e-01  linmin:  1.228e-05  t[s]:     42.45
	Linear fluid (dielectric constant: 78.4, screening length: 5.74355 Bohr) occupying 0.600447 of unit cell:	Completed after 14 iterations at t[s]:     43.94
	Linear fluid (dielectric constant: 78.4, screening length: 5.74355 Bohr) occupying 0.600342 of unit cell:	Completed after 11 iterations at t[s]:     45.31
	FillingsUpdate:  mu: -0.183100000  nElectrons: 80.083684
	SubspaceRotationAdjust: set factor to 0.0525
ElecMinimize: Iter:   8  G: -430.503942734051066  |grad|_K:  1.843e-06  alpha:  5.496e-01  linmin:  5.151e-05  t[s]:     46.65
	Linear fluid (dielectric constant: 78.4, screening length: 5.74355 Bohr) occupying 0.599818 of unit cell:	Completed after 14 iterations at t[s]:     48.12
	Linear fluid (dielectric constant: 78.4, screening length: 5.74355 Bohr) occupying 0.600242 of unit cell:	Completed after 14 iterations at t[s]:     49.57
	FillingsUpdate:  mu: -0.183100000  nElectrons: 80.083435
	SubspaceRotationAdjust: set factor to 0.0383
ElecMinimize: Iter:   9  G: -430.503944232948811  |grad|_K:  1.082e-06  alpha:  1.048e-01  linmin: -5.646e-05  t[s]:     50.88
	Linear fluid (dielectric constant: 78.4, screening length: 5.74355 Bohr) occupying 0.600294 of unit cell:	Completed after 6 iterations at t[s]:     52.14
ElecMinimize: 	Predicted alpha/alphaT>3.000000, increasing alphaT to 3.144605e-01.
	Linear fluid (dielectric constant: 78.4, screening length: 5.74355 Bohr) occupying 0.600399 of unit cell:	Completed after 12 iterations at t[s]:     53.57
ElecMinimize: 	Predicted alpha/alphaT>3.000000, increasing alphaT to 9.433816e-01.
	Linear fluid (dielectric constant: 78.4, screening length: 5.74355 Bohr) occupying 0.600720 of unit cell:	Completed after 13 iterations at t[s]:     55.01
	Linear fluid (dielectric constant: 78.4, screening length: 5.74355 Bohr) occupying 0.600739 of unit cell:	Completed after 2 iterations at t[s]:     56.12
	FillingsUpdate:  mu: -0.183100000  nElectrons: 80.086812
	SubspaceRotationAdjust: set factor to 0.043
ElecMinimize: Iter:  10  G: -430.503949069692965  |grad|_K:  1.750e-06  alpha:  9.813e-01  linmin: -3.545e-05  t[s]:     57.50
	Linear fluid (dielectric constant: 78.4, screening length: 5.74355 Bohr) occupying 0.604036 of unit cell:	Completed after 14 iterations at t[s]:     59.20
	Linear fluid (dielectric constant: 78.4, screening length: 5.74355 Bohr) occupying 0.601535 of unit cell:	Completed after 14 iterations at t[s]:     61.07
	FillingsUpdate:  mu: -0.183100000  nElectrons: 80.091180
	SubspaceRotationAdjust: set factor to 0.0305
ElecMinimize: Iter:  11  G: -430.503952197184844  |grad|_K:  1.801e-06  alpha:  2.491e-01  linmin:  3.552e-04  t[s]:     62.72
	Linear fluid (dielectric constant: 78.4, screening length: 5.74355 Bohr) occupying 0.601901 of unit cell:	Completed after 14 iterations at t[s]:     64.69
	Linear fluid (dielectric constant: 78.4, screening length: 5.74355 Bohr) occupying 0.602292 of unit cell:	Completed after 14 iterations at t[s]:     66.58
	FillingsUpdate:  mu: -0.183100000  nElectrons: 80.096017
	SubspaceRotationAdjust: set factor to 0.035
ElecMinimize: Iter:  12  G: -430.503958977149750  |grad|_K:  1.439e-06  alpha:  5.075e-01  linmin: -1.097e-05  t[s]:     68.29
	Linear fluid (dielectric constant: 78.4, screening length: 5.74355 Bohr) occupying 0.602734 of unit cell:	Completed after 15 iterations at t[s]:     70.17
	Linear fluid (dielectric constant: 78.4, screening length: 5.74355 Bohr) occupying 0.602892 of unit cell:	Completed after 10 iterations at t[s]:     71.89
	FillingsUpdate:  mu: -0.183100000  nElectrons: 80.099821
	SubspaceRotationAdjust: set factor to 0.0356
ElecMinimize: Iter:  13  G: -430.503964950083287  |grad|_K:  1.393e-06  alpha:  6.861e-01  linmin:  1.327e-05  t[s]:     73.51
	Linear fluid (dielectric constant: 78.4, screening length: 5.74355 Bohr) occupying 0.604302 of unit cell:	Completed after 14 iterations at t[s]:     75.38
	Linear fluid (dielectric constant: 78.4, screening length: 5.74355 Bohr) occupying 0.603515 of unit cell:	Completed after 13 iterations at t[s]:     77.09
	FillingsUpdate:  mu: -0.183100000  nElectrons: 80.102976
	SubspaceRotationAdjust: set factor to 0.0265
ElecMinimize: Iter:  14  G: -430.503967431763442  |grad|_K:  1.351e-06  alpha:  3.066e-01  linmin:  4.593e-05  t[s]:     78.76
	Linear fluid (dielectric constant: 78.4, screening length: 5.74355 Bohr) occupying 0.603637 of unit cell:	Completed after 13 iterations at t[s]:     80.57
	Linear fluid (dielectric constant: 78.4, screening length: 5.74355 Bohr) occupying 0.603639 of unit cell:	Completed after 2 iterations at t[s]:     81.97
	FillingsUpdate:  mu: -0.183100000  nElectrons: 80.103950
	SubspaceRotationAdjust: set factor to 0.0262
ElecMinimize: Iter:  15  G: -430.503969813737058  |grad|_K:  8.118e-07  alpha:  3.110e-01  linmin: -3.457e-05  t[s]:     83.68
	Linear fluid (dielectric constant: 78.4, screening length: 5.74355 Bohr) occupying 0.603751 of unit cell:	Completed after 8 iterations at t[s]:     85.33
	Linear fluid (dielectric constant: 78.4, screening length: 5.74355 Bohr) occupying 0.603858 of unit cell:	Completed after 8 iterations at t[s]:     86.92
	FillingsUpdate:  mu: -0.183100000  nElectrons: 80.105198
	SubspaceRotationAdjust: set factor to 0.0337
ElecMinimize: Iter:  16  G: -430.503971503513867  |grad|_K:  7.133e-07  alpha:  6.093e-01  linmin:  1.709e-06  t[s]:     88.67
	Linear fluid (dielectric constant: 78.4, screening length: 5.74355 Bohr) occupying 0.604342 of unit cell:	Completed after 13 iterations at t[s]:     90.53
	Linear fluid (dielectric constant: 78.4, screening length: 5.74355 Bohr) occupying 0.604185 of unit cell:	Completed after 12 iterations at t[s]:     92.25
	FillingsUpdate:  mu: -0.183100000  nElectrons: 80.106749
	SubspaceRotationAdjust: set factor to 0.0281
ElecMinimize: Iter:  17  G: -430.503972376631111  |grad|_K:  7.710e-07  alpha:  4.118e-01  linmin: -1.430e-04  t[s]:     93.95
	Linear fluid (dielectric constant: 78.4, screening length: 5.74355 Bohr) occupying 0.604232 of unit cell:	Completed after 12 iterations at t[s]:     95.80
	Linear fluid (dielectric constant: 78.4, screening length: 5.74355 Bohr) occupying 0.604223 of unit cell:	Completed after 10 iterations at t[s]:     97.46
	FillingsUpdate:  mu: -0.183100000  nElectrons: 80.107087
	SubspaceRotationAdjust: set factor to 0.0221
ElecMinimize: Iter:  18  G: -430.503973216391898  |grad|_K:  5.790e-07  alpha:  3.345e-01  linmin:  5.711e-05  t[s]:     99.08
	Linear fluid (dielectric constant: 78.4, screening length: 5.74355 Bohr) occupying 0.604357 of unit cell:	Completed after 10 iterations at t[s]:    100.80
	Linear fluid (dielectric constant: 78.4, screening length: 5.74355 Bohr) occupying 0.604461 of unit cell:	Completed after 10 iterations at t[s]:    102.43
	FillingsUpdate:  mu: -0.183100000  nElectrons: 80.108269
	SubspaceRotationAdjust: set factor to 0.0259
ElecMinimize: Iter:  19  G: -430.503974053923741  |grad|_K:  4.272e-07  alpha:  5.946e-01  linmin: -6.721e-05  t[s]:    104.07
	Linear fluid (dielectric constant: 78.4, screening length: 5.74355 Bohr) occupying 0.604644 of unit cell:	Completed after 12 iterations at t[s]:    105.86
	Linear fluid (dielectric constant: 78.4, screening length: 5.74355 Bohr) occupying 0.604617 of unit cell:	Completed after 6 iterations at t[s]:    107.36
	FillingsUpdate:  mu: -0.183100000  nElectrons: 80.109016
	SubspaceRotationAdjust: set factor to 0.0252
ElecMinimize: Iter:  20  G: -430.503974444866628  |grad|_K:  3.170e-07  alpha:  5.087e-01  linmin:  1.038e-04  t[s]:    109.00
	Linear fluid (dielectric constant: 78.4, screening length: 5.74355 Bohr) occupying 0.604596 of unit cell:	Completed after 11 iterations at t[s]:    110.77
	Linear fluid (dielectric constant: 78.4, screening length: 5.74355 Bohr) occupying 0.604603 of unit cell:	Completed after 9 iterations at t[s]:    112.38
	FillingsUpdate:  mu: -0.183100000  nElectrons: 80.108996
	SubspaceRotationAdjust: set factor to 0.0182
ElecMinimize: Iter:  21  G: -430.503974591485076  |grad|_K:  2.430e-07  alpha:  3.483e-01  linmin: -2.606e-05  t[s]:    114.05
	Linear fluid (dielectric constant: 78.4, screening length: 5.74355 Bohr) occupying 0.604674 of unit cell:	Completed after 11 iterations at t[s]:    115.86
	Linear fluid (dielectric constant: 78.4, screening length: 5.74355 Bohr) occupying 0.604676 of unit cell:	Completed after 0 iterations at t[s]:    117.11
	FillingsUpdate:  mu: -0.183100000  nElectrons: 80.109327
	SubspaceRotationAdjust: set factor to 0.0167
	SubspaceRotationAdjust: resetting CG because factor has changed by 0.126677
	Linear fluid (dielectric constant: 78.4, screening length: 5.74355 Bohr) occupying 0.604676 of unit cell:	Completed after 0 iterations at t[s]:    119.44
ElecMinimize: 	State modified externally: resetting search direction.
ElecMinimize: Iter:  22  G: -430.503974679410589  |grad|_K:  1.448e-07  alpha:  3.539e-01
	Linear fluid (dielectric constant: 78.4, screening length: 5.74355 Bohr) occupying 0.604666 of unit cell:	Completed after 6 iterations at t[s]:    122.73
	Linear fluid (dielectric constant: 78.4, screening length: 5.74355 Bohr) occupying 0.604667 of unit cell:	Completed after 0 iterations at t[s]:    124.02
	FillingsUpdate:  mu: -0.183100000  nElectrons: 80.109293
	SubspaceRotationAdjust: set factor to 0.0244
ElecMinimize: Iter:  23  G: -430.503974706493409  |grad|_K:  8.276e-08  alpha:  3.070e-01  linmin:  2.265e-03  t[s]:    125.73
	Linear fluid (dielectric constant: 78.4, screening length: 5.74355 Bohr) occupying 0.604669 of unit cell:	Completed after 2 iterations at t[s]:    127.19
	Linear fluid (dielectric constant: 78.4, screening length: 5.74355 Bohr) occupying 0.604671 of unit cell:	Completed after 3 iterations at t[s]:    128.64
	FillingsUpdate:  mu: -0.183100000  nElectrons: 80.109319
	SubspaceRotationAdjust: set factor to 0.0301
ElecMinimize: Iter:  24  G: -430.503974729733045  |grad|_K:  8.931e-08  alpha:  8.102e-01  linmin: -5.396e-04  t[s]:    130.31
	Linear fluid (dielectric constant: 78.4, screening length: 5.74355 Bohr) occupying 0.604670 of unit cell:	Completed after 2 iterations at t[s]:    131.75
	Linear fluid (dielectric constant: 78.4, screening length: 5.74355 Bohr) occupying 0.604670 of unit cell:	Completed after 2 iterations at t[s]:    133.10
	FillingsUpdate:  mu: -0.183100000  nElectrons: 80.109333
	SubspaceRotationAdjust: set factor to 0.0355
ElecMinimize: Iter:  25  G: -430.503974764402983  |grad|_K:  1.233e-07  alpha:  1.027e+00  linmin:  1.916e-04  t[s]:    134.75
	Linear fluid (dielectric constant: 78.4, screening length: 5.74355 Bohr) occupying 0.604698 of unit cell:	Completed after 7 iterations at t[s]:    136.37
	Linear fluid (dielectric constant: 78.4, screening length: 5.74355 Bohr) occupying 0.604699 of unit cell:	Completed after 0 iterations at t[s]:    137.64
	FillingsUpdate:  mu: -0.183100000  nElectrons: 80.109499
	SubspaceRotationAdjust: set factor to 0.0394
ElecMinimize: Iter:  26  G: -430.503974832814606  |grad|_K:  1.569e-07  alpha:  1.084e+00  linmin: -3.270e-05  t[s]:    139.28
	Linear fluid (dielectric constant: 78.4, screening length: 5.74355 Bohr) occupying 0.604739 of unit cell:	Completed after 9 iterations at t[s]:    140.94
	Linear fluid (dielectric constant: 78.4, screening length: 5.74355 Bohr) occupying 0.604730 of unit cell:	Completed after 2 iterations at t[s]:    142.30
	FillingsUpdate:  mu: -0.183100000  nElectrons: 80.109694
	SubspaceRotationAdjust: set factor to 0.043
ElecMinimize: Iter:  27  G: -430.503974920556743  |grad|_K:  1.887e-07  alpha:  8.482e-01  linmin: -1.160e-05  t[s]:    143.97
	Linear fluid (dielectric constant: 78.4, screening length: 5.74355 Bohr) occupying 0.604723 of unit cell:	Completed after 10 iterations at t[s]:    145.67
	Linear fluid (dielectric constant: 78.4, screening length: 5.74355 Bohr) occupying 0.604724 of unit cell:	Completed after 2 iterations at t[s]:    147.00
	FillingsUpdate:  mu: -0.183100000  nElectrons: 80.109752
	SubspaceRotationAdjust: set factor to 0.0373
ElecMinimize: Iter:  28  G: -430.503975020036592  |grad|_K:  2.347e-07  alpha:  6.620e-01  linmin:  6.214e-05  t[s]:    148.62
	Linear fluid (dielectric constant: 78.4, screening length: 5.74355 Bohr) occupying 0.604882 of unit cell:	Completed after 12 iterations at t[s]:    150.38
	Linear fluid (dielectric constant: 78.4, screening length: 5.74355 Bohr) occupying 0.604772 of unit cell:	Completed after 12 iterations at t[s]:    152.10
	FillingsUpdate:  mu: -0.183100000  nElectrons: 80.109991
	SubspaceRotationAdjust: set factor to 0.028
ElecMinimize: Iter:  29  G: -430.503975062901191  |grad|_K:  1.999e-07  alpha:  2.011e-01  linmin:  1.873e-04  t[s]:    153.74
	Linear fluid (dielectric constant: 78.4, screening length: 5.74355 Bohr) occupying 0.604764 of unit cell:	Completed after 2 iterations at t[s]:    155.17
	Linear fluid (dielectric constant: 78.4, screening length: 5.74355 Bohr) occupying 0.604755 of unit cell:	Completed after 6 iterations at t[s]:    156.66
	FillingsUpdate:  mu: -0.183100000  nElectrons: 80.109988
	SubspaceRotationAdjust: set factor to 0.041
ElecMinimize: Iter:  30  G: -430.503975132391759  |grad|_K:  1.404e-07  alpha:  4.336e-01  linmin:  3.251e-04  t[s]:    158.31
	Linear fluid (dielectric constant: 78.4, screening length: 5.74355 Bohr) occupying 0.604719 of unit cell:	Completed after 10 iterations at t[s]:    160.02
	Linear fluid (dielectric constant: 78.4, screening length: 5.74355 Bohr) occupying 0.604724 of unit cell:	Completed after 2 iterations at t[s]:    161.37
	FillingsUpdate:  mu: -0.183100000  nElectrons: 80.109890
	SubspaceRotationAdjust: set factor to 0.0313
ElecMinimize: Iter:  31  G: -430.503975162272695  |grad|_K:  1.467e-07  alpha:  3.701e-01  linmin:  3.535e-04  t[s]:    162.99
	Linear fluid (dielectric constant: 78.4, screening length: 5.74355 Bohr) occupying 0.604750 of unit cell:	Completed after 10 iterations at t[s]:    164.68
	Linear fluid (dielectric constant: 78.4, screening length: 5.74355 Bohr) occupying 0.604736 of unit cell:	Completed after 9 iterations at t[s]:    166.26
	FillingsUpdate:  mu: -0.183100000  nElectrons: 80.109957
	SubspaceRotationAdjust: set factor to 0.0263
ElecMinimize: Iter:  32  G: -430.503975177166751  |grad|_K:  9.433e-08  alpha:  1.786e-01  linmin:  1.330e-04  t[s]:    167.88
	Linear fluid (dielectric constant: 78.4, screening length: 5.74355 Bohr) occupying 0.604729 of unit cell:	Completed after 2 iterations at t[s]:    169.31
	Linear fluid (dielectric constant: 78.4, screening length: 5.74355 Bohr) occupying 0.604714 of unit cell:	Completed after 5 iterations at t[s]:    170.79
	FillingsUpdate:  mu: -0.183100000  nElectrons: 80.109888
	SubspaceRotationAdjust: set factor to 0.0293
ElecMinimize: Iter:  33  G: -430.503975196297290  |grad|_K:  8.216e-08  alpha:  5.113e-01  linmin: -2.868e-04  t[s]:    172.46
	Linear fluid (dielectric constant: 78.4, screening length: 5.74355 Bohr) occupying 0.604660 of unit cell:	Completed after 11 iterations at t[s]:    174.19
	Linear fluid (dielectric constant: 78.4, screening length: 5.74355 Bohr) occupying 0.604687 of unit cell:	Completed after 9 iterations at t[s]:    175.77
	FillingsUpdate:  mu: -0.183100000  nElectrons: 80.109784
	SubspaceRotationAdjust: set factor to 0.0229
ElecMinimize: Iter:  34  G: -430.503975203378502  |grad|_K:  6.991e-08  alpha:  2.605e-01  linmin:  1.462e-04  t[s]:    177.38
	Linear fluid (dielectric constant: 78.4, screening length: 5.74355 Bohr) occupying 0.604682 of unit cell:	Completed after 2 iterations at t[s]:    178.79
	Linear fluid (dielectric constant: 78.4, screening length: 5.74355 Bohr) occupying 0.604679 of unit cell:	Completed after 2 iterations at t[s]:    180.14
	FillingsUpdate:  mu: -0.183100000  nElectrons: 80.109766
	SubspaceRotationAdjust: set factor to 0.0352
ElecMinimize: Iter:  35  G: -430.503975210975739  |grad|_K:  4.928e-08  alpha:  3.833e-01  linmin:  5.108e-04  t[s]:    181.85
ElecMinimize: Converged (|Delta G|<1.000000e-08 for 2 iters).
Setting wave functions to eigenvectors of Hamiltonian

# Ionic positions in lattice coordinates:
ion Pt   0.333333333333333  -0.333333333333333  -0.237676000000000 1
ion Pt  -0.333333333333333   0.333333333333333  -0.118838000000000 1
ion Pt   0.000000000000000   0.000000000000000   0.000000000000000 1
ion Pt   0.333333333333333  -0.333333333333333   0.118838000000000 1
ion Pt  -0.333333333333333   0.333333333333333   0.237676000000000 1


# Forces in Lattice coordinates:
force Pt   0.000000000000000  -0.000000000000000  -0.048798625625637 1
force Pt   0.000000000000000   0.000000000000000   0.091480808748524 1
force Pt   0.000000000000000   0.000000000000000   0.000000000000000 1
force Pt   0.000000000000000  -0.000000000000000  -0.091480808748524 1
force Pt  -0.000000000000000  -0.000000000000000   0.048798625626547 1

# Energy components:
   A_diel =       -0.0342721811600602
   Eewald =     4702.9680318706023172
       EH =     5109.4522130693048894
     Eloc =   -10334.3102844743843889
      Enl =       -5.2769188631671602
      Exc =     -141.5879325451102204
 Exc_core =       81.2082896017070937
       KE =      142.4702967324360259
  MuShift =       -0.0050896666561345
-------------------------------------
     Etot =     -445.1156664564269363
       TS =        0.0564069674229234
-------------------------------------
        F =     -445.1720734238498380
      muN =      -14.6680982128741046
-------------------------------------
        G =     -430.5039752109757387

IonicMinimize: Iter:   0  G: -430.503975210975739  |grad|_K:  1.052e-03  t[s]:    182.63
IonicMinimize: None of the convergence criteria satisfied after 0 iterations.

#--- Lowdin population analysis ---
# oxidation-state Pt -0.046 +0.010 +0.015 +0.010 -0.046


Dumping 'common.fillings' ... done
Dumping 'common.wfns' ... done
Dumping 'common.fluidState' ... done
Dumping 'common.eigenvals' ... done
Dumping 'common.nbound' ... done
End date and time: Tue Mar 19 06:46:53 2019  (Duration: 0-0:03:03.01)
Done!
