CRYSTAL
PRIMVEC
  2.772709   0.000000   0.000000
 -1.386354   2.401237   0.000000
  0.000000   0.000000  19.050379
PRIMCOORD
5 1
78   1.386354  -0.800412  -4.527818
78  -1.386354   0.800412  -2.263909
78   0.000000   0.000000   0.000000
78   1.386354  -0.800412   2.263909
78  -1.386354   0.800412   4.527818
BEGIN_BLOCK_DATAGRID_3D
 Charged-0.2382.nbound
 BEGIN_DATAGRID_3D_Charged-0.2382.nbound
  25 25 169
    0.000000   0.000000   0.000000
    2.772709   0.000000   0.000000
   -1.386354   2.401237   0.000000
    0.000000   0.000000  19.050379
  5.893242e-05 5.894149e-05 5.896377e-05 5.898792e-05 5.900328e-05 5.900491e-05 5.899402e-05 5.897547e-05 5.895474e-05 5.893592e-05 5.892135e-05 5.891217e-05 5.890903e-05 5.891217e-05 5.892135e-05 5.893592e-05 5.895474e-05 5.897547e-05 5.899402e-05 5.900491e-05 5.900328e-05 5.898792e-05 5.896377e-05 5.894149e-05 5.893242e-05
  5.894149e-05 5.894149e-05 5.895710e-05 5.897989e-05 5.899868e-05 5.900579e-05 5.899974e-05 5.898394e-05 5.896371e-05 5.894381e-05 5.892722e-05 5.891548e-05 5.890939e-05 5.890939e-05 5.891548e-05 5.892722e-05 5.894381e-05 5.896371e-05 5.898394e-05 5.899974e-05 5.900579e-05 5.899868e-05 5.897989e-05 5.895710e-05 5.894149e-05
  5.896377e-05 5.895710e-05 5.896377e-05 5.897989e-05 5.899649e-05 5.900514e-05 5.900214e-05 5.898892e-05 5.896994e-05 5.894994e-05 5.893231e-05 5.891880e-05 5.891032e-05 5.890741e-05 5.891032e-05 5.891880e-05 5.893231e-05 5.894994e-05 5.896994e-05 5.898892e-05 5.900214e-05 5.900514e-05 5.899649e-05 5.897989e-05 5.896377e-05
  5.898792e-05 5.897989e-05 5.897989e-05 5.898792e-05 5.899868e-05 5.900514e-05 5.900270e-05 5.899107e-05 5.897339e-05 5.895391e-05 5.893604e-05 5.892162e-05 5.891151e-05 5.890626e-05 5.890626e-05 5.891151e-05 5.892162e-05 5.893604e-05 5.895391e-05 5.897339e-05 5.899107e-05 5.900270e-05 5.900514e-05 5.899868e-05 5.898792e-05
  5.900328e-05 5.899868e-05 5.899649e-05 5.899868e-05 5.900328e-05 5.900579e-05 5.900214e-05 5.899107e-05 5.897447e-05 5.895579e-05 5.893821e-05 5.892357e-05 5.891261e-05 5.890573e-05 5.890337e-05 5.890573e-05 5.891261e-05 5.892357e-05 5.893821e-05 5.895579e-05 5.897447e-05 5.899107e-05 5.900214e-05 5.900579e-05 5.900328e-05
  5.900491e-05 5.900579e-05 5.900514e-05 5.900514e-05 5.900579e-05 5.900491e-05 5.899974e-05 5.898892e-05 5.897339e-05 5.895579e-05 5.893891e-05 5.892454e-05 5.891335e-05 5.890558e-05 5.890153e-05 5.890153e-05 5.890558e-05 5.891335e-05 5.892454e-05 5.893891e-05 5.895579e-05 5.897339e-05 5.898892e-05 5.899974e-05 5.900491e-05
  5.899402e-05 5.899974e-05 5.900214e-05 5.900270e-05 5.900214e-05 5.899974e-05 5.899402e-05 5.898394e-05 5.896994e-05 5.895391e-05 5.893821e-05 5.892454e-05 5.891361e-05 5.890556e-05 5.890053e-05 5.889880e-05 5.890053e-05 5.890556e-05 5.891361e-05 5.892454e-05 5.893821e-05 5.895391e-05 5.896994e-05 5.898394e-05 5.899402e-05
  5.897547e-05 5.898394e-05 5.898892e-05 5.899107e-05 5.899107e-05 5.898892e-05 5.898394e-05 5.897547e-05 5.896371e-05 5.894994e-05 5.893604e-05 5.892357e-05 5.891335e-05 5.890556e-05 5.890022e-05 5.889747e-05 5.889747e-05 5.890022e-05 5.890556e-05 5.891335e-05 5.892357e-05 5.893604e-05 5.894994e-05 5.896371e-05 5.897547e-05
  5.895474e-05 5.896371e-05 5.896994e-05 5.897339e-05 5.897447e-05 5.897339e-05 5.896994e-05 5.896371e-05 5.895474e-05 5.894381e-05 5.893231e-05 5.892162e-05 5.891261e-05 5.890558e-05 5.890053e-05 5.889747e-05 5.889643e-05 5.889747e-05 5.890053e-05 5.890558e-05 5.891261e-05 5.892162e-05 5.893231e-05 5.894381e-05 5.895474e-05
  5.893592e-05 5.894381e-05 5.894994e-05 5.895391e-05 5.895579e-05 5.895579e-05 5.895391e-05 5.894994e-05 5.894381e-05 5.893592e-05 5.892722e-05 5.891880e-05 5.891151e-05 5.890573e-05 5.890153e-05 5.889880e-05 5.889747e-05 5.889747e-05 5.889880e-05 5.890153e-05 5.890573e-05 5.891151e-05 5.891880e-05 5.892722e-05 5.893592e-05
  5.892135e-05 5.892722e-05 5.893231e-05 5.893604e-05 5.893821e-05 5.893891e-05 5.893821e-05 5.893604e-05 5.893231e-05 5.892722e-05 5.892135e-05 5.891548e-05 5.891032e-05 5.890626e-05 5.890337e-05 5.890153e-05 5.890053e-05 5.890022e-05 5.890053e-05 5.890153e-05 5.890337e-05 5.890626e-05 5.891032e-05 5.891548e-05 5.892135e-05
  5.891217e-05 5.891548e-05 5.891880e-05 5.892162e-05 5.892357e-05 5.892454e-05 5.892454e-05 5.892357e-05 5.892162e-05 5.891880e-05 5.891548e-05 5.891217e-05 5.890939e-05 5.890741e-05 5.890626e-05 5.890573e-05 5.890558e-05 5.890556e-05 5.890556e-05 5.890558e-05 5.890573e-05 5.890626e-05 5.890741e-05 5.890939e-05 5.891217e-05
  5.890903e-05 5.890939e-05 5.891032e-05 5.891151e-05 5.891261e-05 5.891335e-05 5.891361e-05 5.891335e-05 5.891261e-05 5.891151e-05 5.891032e-05 5.890939e-05 5.890903e-05 5.890939e-05 5.891032e-05 5.891151e-05 5.891261e-05 5.891335e-05 5.891361e-05 5.891335e-05 5.891261e-05 5.891151e-05 5.891032e-05 5.890939e-05 5.890903e-05
  5.891217e-05 5.890939e-05 5.890741e-05 5.890626e-05 5.890573e-05 5.890558e-05 5.890556e-05 5.890556e-05 5.890558e-05 5.890573e-05 5.890626e-05 5.890741e-05 5.890939e-05 5.891217e-05 5.891548e-05 5.891880e-05 5.892162e-05 5.892357e-05 5.892454e-05 5.892454e-05 5.892357e-05 5.892162e-05 5.891880e-05 5.891548e-05 5.891217e-05
  5.892135e-05 5.891548e-05 5.891032e-05 5.890626e-05 5.890337e-05 5.890153e-05 5.890053e-05 5.890022e-05 5.890053e-05 5.890153e-05 5.890337e-05 5.890626e-05 5.891032e-05 5.891548e-05 5.892135e-05 5.892722e-05 5.893231e-05 5.893604e-05 5.893821e-05 5.893891e-05 5.893821e-05 5.893604e-05 5.893231e-05 5.892722e-05 5.892135e-05
  5.893592e-05 5.892722e-05 5.891880e-05 5.891151e-05 5.890573e-05 5.890153e-05 5.889880e-05 5.889747e-05 5.889747e-05 5.889880e-05 5.890153e-05 5.890573e-05 5.891151e-05 5.891880e-05 5.892722e-05 5.893592e-05 5.894381e-05 5.894994e-05 5.895391e-05 5.895579e-05 5.895579e-05 5.895391e-05 5.894994e-05 5.894381e-05 5.893592e-05
  5.895474e-05 5.894381e-05 5.893231e-05 5.892162e-05 5.891261e-05 5.890558e-05 5.890053e-05 5.889747e-05 5.889643e-05 5.889747e-05 5.890053e-05 5.890558e-05 5.891261e-05 5.892162e-05 5.893231e-05 5.894381e-05 5.895474e-05 5.896371e-05 5.896994e-05 5.897339e-05 5.897447e-05 5.897339e-05 5.896994e-05 5.896371e-05 5.895474e-05
  5.897547e-05 5.896371e-05 5.894994e-05 5.893604e-05 5.892357e-05 5.891335e-05 5.890556e-05 5.890022e-05 5.889747e-05 5.889747e-05 5.890022e-05 5.890556e-05 5.891335e-05 5.892357e-05 5.893604e-05 5.894994e-05 5.896371e-05 5.897547e-05 5.898394e-05 5.898892e-05 5.899107e-05 5.899107e-05 5.898892e-05 5.898394e-05 5.897547e-05
  5.899402e-05 5.898394e-05 5.896994e-05 5.895391e-05 5.893821e-05 5.892454e-05 5.891361e-05 5.890556e-05 5.890053e-05 5.889880e-05 5.890053e-05 5.890556e-05 5.891361e-05 5.892454e-05 5.893821e-05 5.895391e-05 5.896994e-05 5.898394e-05 5.899402e-05 5.899974e-05 5.900214e-05 5.900270e-05 5.900214e-05 5.899974e-05 5.899402e-05
  5.900491e-05 5.899974e-05 5.898892e-05 5.897339e-05 5.895579e-05 5.893891e-05 5.892454e-05 5.891335e-05 5.890558e-05 5.890153e-05 5.890153e-05 5.890558e-05 5.891335e-05 5.892454e-05 5.893891e-05 5.895579e-05 5.897339e-05 5.898892e-05 5.899974e-05 5.900491e-05 5.900579e-05 5.900514e-05 5.900514e-05 5.900579e-05 5.900491e-05
  5.900328e-05 5.900579e-05 5.900214e-05 5.899107e-05 5.897447e-05 5.895579e-05 5.893821e-05 5.892357e-05 5.891261e-05 5.890573e-05 5.890337e-05 5.890573e-05 5.891261e-05 5.892357e-05 5.893821e-05 5.895579e-05 5.897447e-05 5.899107e-05 5.900214e-05 5.900579e-05 5.900328e-05 5.899868e-05 5.899649e-05 5.899868e-05 5.900328e-05
  5.898792e-05 5.899868e-05 5.900514e-05 5.900270e-05 5.899107e-05 5.897339e-05 5.895391e-05 5.893604e-05 5.892162e-05 5.891151e-05 5.890626e-05 5.890626e-05 5.891151e-05 5.892162e-05 5.893604e-05 5.895391e-05 5.897339e-05 5.899107e-05 5.900270e-05 5.900514e-05 5.899868e-05 5.898792e-05 5.897989e-05 5.897989e-05 5.898792e-05
  5.896377e-05 5.897989e-05 5.899649e-05 5.900514e-05 5.900214e-05 5.898892e-05 5.896994e-05 5.894994e-05 5.893231e-05 5.891880e-05 5.891032e-05 5.890741e-05 5.891032e-05 5.891880e-05 5.893231e-05 5.894994e-05 5.896994e-05 5.898892e-05 5.900214e-05 5.900514e-05 5.899649e-05 5.897989e-05 5.896377e-05 5.895710e-05 5.896377e-05
  5.894149e-05 5.895710e-05 5.897989e-05 5.899868e-05 5.900579e-05 5.899974e-05 5.898394e-05 5.896371e-05 5.894381e-05 5.892722e-05 5.891548e-05 5.890939e-05 5.890939e-05 5.891548e-05 5.892722e-05 5.894381e-05 5.896371e-05 5.898394e-05 5.899974e-05 5.900579e-05 5.899868e-05 5.897989e-05 5.895710e-05 5.894149e-05 5.894149e-05
  5.893242e-05 5.894149e-05 5.896377e-05 5.898792e-05 5.900328e-05 5.900491e-05 5.899402e-05 5.897547e-05 5.895474e-05 5.893592e-05 5.892135e-05 5.891217e-05 5.890903e-05 5.891217e-05 5.892135e-05 5.893592e-05 5.895474e-05 5.897547e-05 5.899402e-05 5.900491e-05 5.900328e-05 5.898792e-05 5.896377e-05 5.894149e-05 5.893242e-05
  5.893518e-05 5.894327e-05 5.896324e-05 5.898509e-05 5.899916e-05 5.900065e-05 5.899040e-05 5.897280e-05 5.895301e-05 5.893498e-05 5.892096e-05 5.891210e-05 5.890906e-05 5.891210e-05 5.892096e-05 5.893498e-05 5.895301e-05 5.897280e-05 5.899040e-05 5.900065e-05 5.899916e-05 5.898509e-05 5.896324e-05 5.894327e-05 5.893518e-05
  5.894327e-05 5.894327e-05 5.895725e-05 5.897796e-05 5.899545e-05 5.900244e-05 5.899704e-05 5.898211e-05 5.896268e-05 5.894341e-05 5.892730e-05 5.891587e-05 5.890994e-05 5.890994e-05 5.891587e-05 5.892730e-05 5.894341e-05 5.896268e-05 5.898211e-05 5.899704e-05 5.900244e-05 5.899545e-05 5.897796e-05 5.895725e-05 5.894327e-05
  5.896324e-05 5.895724e-05 5.896324e-05 5.897796e-05 5.899359e-05 5.900232e-05 5.900016e-05 5.898794e-05 5.896972e-05 5.895023e-05 5.893293e-05 5.891968e-05 5.891135e-05 5.890849e-05 5.891135e-05 5.891968e-05 5.893293e-05 5.895023e-05 5.896972e-05 5.898794e-05 5.900016e-05 5.900232e-05 5.899359e-05 5.897796e-05 5.896324e-05
  5.898509e-05 5.897764e-05 5.897764e-05 5.898509e-05 5.899545e-05 5.900232e-05 5.900100e-05 5.899061e-05 5.897383e-05 5.895484e-05 5.893721e-05 5.892296e-05 5.891297e-05 5.890778e-05 5.890778e-05 5.891297e-05 5.892296e-05 5.893721e-05 5.895484e-05 5.897383e-05 5.899061e-05 5.900100e-05 5.900232e-05 5.899545e-05 5.898509e-05
  5.899916e-05 5.899439e-05 5.899223e-05 5.899439e-05 5.899916e-05 5.900244e-05 5.900016e-05 5.899061e-05 5.897515e-05 5.895711e-05 5.893981e-05 5.892530e-05 5.891443e-05 5.890761e-05 5.890528e-05 5.890761e-05 5.891443e-05 5.892530e-05 5.893981e-05 5.895711e-05 5.897515e-05 5.899061e-05 5.900016e-05 5.900244e-05 5.899916e-05
  5.900065e-05 5.900051e-05 5.899942e-05 5.899942e-05 5.900051e-05 5.900065e-05 5.899704e-05 5.898794e-05 5.897383e-05 5.895711e-05 5.894067e-05 5.892650e-05 5.891542e-05 5.890771e-05 5.890370e-05 5.890370e-05 5.890771e-05 5.891542e-05 5.892650e-05 5.894067e-05 5.895711e-05 5.897383e-05 5.898794e-05 5.899704e-05 5.900065e-05
  5.899040e-05 5.899455e-05 5.899593e-05 5.899615e-05 5.899593e-05 5.899455e-05 5.899040e-05 5.898211e-05 5.896972e-05 5.895484e-05 5.893981e-05 5.892650e-05 5.891576e-05 5.890783e-05 5.890287e-05 5.890117e-05 5.890287e-05 5.890783e-05 5.891576e-05 5.892650e-05 5.893981e-05 5.895484e-05 5.896972e-05 5.898211e-05 5.899040e-05
  5.897280e-05 5.897958e-05 5.898319e-05 5.898460e-05 5.898460e-05 5.898319e-05 5.897958e-05 5.897280e-05 5.896268e-05 5.895023e-05 5.893721e-05 5.892530e-05 5.891542e-05 5.890783e-05 5.890262e-05 5.889993e-05 5.889993e-05 5.890262e-05 5.890783e-05 5.891542e-05 5.892530e-05 5.893721e-05 5.895023e-05 5.896268e-05 5.897280e-05
  5.895301e-05 5.896049e-05 5.896532e-05 5.896779e-05 5.896851e-05 5.896779e-05 5.896532e-05 5.896049e-05 5.895301e-05 5.894341e-05 5.893293e-05 5.892296e-05 5.891443e-05 5.890771e-05 5.890287e-05 5.889993e-05 5.889893e-05 5.889993e-05 5.890287e-05 5.890771e-05 5.891443e-05 5.892296e-05 5.893293e-05 5.894341e-05 5.895301e-05
  5.893498e-05 5.894167e-05 5.894660e-05 5.894958e-05 5.895089e-05 5.895089e-05 5.894958e-05 5.894660e-05 5.894167e-05 5.893498e-05 5.892730e-05 5.891968e-05 5.891297e-05 5.890761e-05 5.890370e-05 5.890117e-05 5.889993e-05 5.889993e-05 5.890117e-05 5.890370e-05 5.890761e-05 5.891297e-05 5.891968e-05 5.892730e-05 5.893498e-05
  5.892096e-05 5.892592e-05 5.893006e-05 5.893292e-05 5.893449e-05 5.893497e-05 5.893449e-05 5.893292e-05 5.893006e-05 5.892592e-05 5.892096e-05 5.891587e-05 5.891135e-05 5.890778e-05 5.890528e-05 5.890370e-05 5.890287e-05 5.890262e-05 5.890287e-05 5.890370e-05 5.890528e-05 5.890778e-05 5.891135e-05 5.891587e-05 5.892096e-05
  5.891210e-05 5.891471e-05 5.891730e-05 5.891941e-05 5.892081e-05 5.892147e-05 5.892147e-05 5.892081e-05 5.891941e-05 5.891730e-05 5.891471e-05 5.891210e-05 5.890994e-05 5.890849e-05 5.890778e-05 5.890761e-05 5.890771e-05 5.890783e-05 5.890783e-05 5.890771e-05 5.890761e-05 5.890778e-05 5.890849e-05 5.890994e-05 5.891210e-05
  5.890906e-05 5.890886e-05 5.890922e-05 5.890986e-05 5.891049e-05 5.891091e-05 5.891106e-05 5.891091e-05 5.891049e-05 5.890986e-05 5.890922e-05 5.890886e-05 5.890906e-05 5.890994e-05 5.891135e-05 5.891297e-05 5.891443e-05 5.891542e-05 5.891576e-05 5.891542e-05 5.891443e-05 5.891297e-05 5.891135e-05 5.890994e-05 5.890906e-05
  5.891210e-05 5.890886e-05 5.890644e-05 5.890486e-05 5.890396e-05 5.890352e-05 5.890335e-05 5.890335e-05 5.890352e-05 5.890396e-05 5.890486e-05 5.890644e-05 5.890886e-05 5.891210e-05 5.891587e-05 5.891968e-05 5.892296e-05 5.892530e-05 5.892650e-05 5.892650e-05 5.892530e-05 5.892296e-05 5.891968e-05 5.891587e-05 5.891210e-05
  5.892096e-05 5.891471e-05 5.890922e-05 5.890486e-05 5.890170e-05 5.889964e-05 5.889850e-05 5.889814e-05 5.889850e-05 5.889964e-05 5.890170e-05 5.890486e-05 5.890922e-05 5.891471e-05 5.892096e-05 5.892730e-05 5.893293e-05 5.893721e-05 5.893981e-05 5.894067e-05 5.893981e-05 5.893721e-05 5.893293e-05 5.892730e-05 5.892096e-05
  5.893498e-05 5.892592e-05 5.891730e-05 5.890986e-05 5.890396e-05 5.889964e-05 5.889683e-05 5.889545e-05 5.889545e-05 5.889683e-05 5.889964e-05 5.890396e-05 5.890986e-05 5.891730e-05 5.892592e-05 5.893498e-05 5.894341e-05 5.895023e-05 5.895484e-05 5.895711e-05 5.895711e-05 5.895484e-05 5.895023e-05 5.894341e-05 5.893498e-05
  5.895301e-05 5.894167e-05 5.893006e-05 5.891941e-05 5.891049e-05 5.890352e-05 5.889850e-05 5.889545e-05 5.889442e-05 5.889545e-05 5.889850e-05 5.890352e-05 5.891049e-05 5.891941e-05 5.893006e-05 5.894167e-05 5.895301e-05 5.896268e-05 5.896972e-05 5.897383e-05 5.897515e-05 5.897383e-05 5.896972e-05 5.896268e-05 5.895301e-05
  5.897280e-05 5.896049e-05 5.894660e-05 5.893292e-05 5.892081e-05 5.891091e-05 5.890335e-05 5.889814e-05 5.889545e-05 5.889545e-05 5.889814e-05 5.890335e-05 5.891091e-05 5.892081e-05 5.893292e-05 5.894660e-05 5.896049e-05 5.897280e-05 5.898211e-05 5.898794e-05 5.899061e-05 5.899061e-05 5.898794e-05 5.898211e-05 5.897280e-05
  5.899040e-05 5.897958e-05 5.896532e-05 5.894958e-05 5.893449e-05 5.892147e-05 5.891106e-05 5.890335e-05 5.889850e-05 5.889683e-05 5.889850e-05 5.890335e-05 5.891106e-05 5.892147e-05 5.893449e-05 5.894958e-05 5.896532e-05 5.897958e-05 5.899040e-05 5.899704e-05 5.900016e-05 5.900100e-05 5.900016e-05 5.899704e-05 5.899040e-05
  5.900065e-05 5.899455e-05 5.898319e-05 5.896779e-05 5.895089e-05 5.893497e-05 5.892147e-05 5.891091e-05 5.890352e-05 5.889964e-05 5.889964e-05 5.890352e-05 5.891091e-05 5.892147e-05 5.893497e-05 5.895089e-05 5.896779e-05 5.898319e-05 5.899455e-05 5.900065e-05 5.900244e-05 5.900232e-05 5.900232e-05 5.900244e-05 5.900065e-05
  5.899916e-05 5.900051e-05 5.899593e-05 5.898460e-05 5.896851e-05 5.895089e-05 5.893449e-05 5.892081e-05 5.891049e-05 5.890396e-05 5.890170e-05 5.890396e-05 5.891049e-05 5.892081e-05 5.893449e-05 5.895089e-05 5.896851e-05 5.898460e-05 5.899593e-05 5.900051e-05 5.899916e-05 5.899545e-05 5.899359e-05 5.899545e-05 5.899916e-05
  5.898509e-05 5.899439e-05 5.899942e-05 5.899615e-05 5.898460e-05 5.896779e-05 5.894958e-05 5.893292e-05 5.891941e-05 5.890986e-05 5.890486e-05 5.890486e-05 5.890986e-05 5.891941e-05 5.893292e-05 5.894958e-05 5.896779e-05 5.898460e-05 5.899615e-05 5.899942e-05 5.899439e-05 5.898509e-05 5.897796e-05 5.897796e-05 5.898509e-05
  5.896324e-05 5.897764e-05 5.899223e-05 5.899942e-05 5.899593e-05 5.898319e-05 5.896532e-05 5.894660e-05 5.893006e-05 5.891730e-05 5.890922e-05 5.890644e-05 5.890922e-05 5.891730e-05 5.893006e-05 5.894660e-05 5.896532e-05 5.898319e-05 5.899593e-05 5.899942e-05 5.899223e-05 5.897764e-05 5.896324e-05 5.895725e-05 5.896324e-05
  5.894327e-05 5.895724e-05 5.897764e-05 5.899439e-05 5.900051e-05 5.899455e-05 5.897958e-05 5.896049e-05 5.894167e-05 5.892592e-05 5.891471e-05 5.890886e-05 5.890886e-05 5.891471e-05 5.892592e-05 5.894167e-05 5.896049e-05 5.897958e-05 5.899455e-05 5.900051e-05 5.899439e-05 5.897764e-05 5.895724e-05 5.894327e-05 5.894327e-05
  5.893518e-05 5.894327e-05 5.896324e-05 5.898509e-05 5.899916e-05 5.900065e-05 5.899040e-05 5.897280e-05 5.895301e-05 5.893498e-05 5.892096e-05 5.891210e-05 5.890906e-05 5.891210e-05 5.892096e-05 5.893498e-05 5.895301e-05 5.897280e-05 5.899040e-05 5.900065e-05 5.899916e-05 5.898509e-05 5.896324e-05 5.894327e-05 5.893518e-05
  5.894515e-05 5.895069e-05 5.896456e-05 5.898009e-05 5.899019e-05 5.899066e-05 5.898149e-05 5.896600e-05 5.894851e-05 5.893247e-05 5.891989e-05 5.891186e-05 5.890909e-05 5.891186e-05 5.891989e-05 5.893247e-05 5.894851e-05 5.896600e-05 5.898149e-05 5.899066e-05 5.899019e-05 5.898009e-05 5.896456e-05 5.895069e-05 5.894515e-05
  5.895069e-05 5.895069e-05 5.896043e-05 5.897525e-05 5.898818e-05 5.899333e-05 5.898844e-05 5.897528e-05 5.895801e-05 5.894077e-05 5.892624e-05 5.891586e-05 5.891042e-05 5.891042e-05 5.891586e-05 5.892624e-05 5.894077e-05 5.895801e-05 5.897528e-05 5.898844e-05 5.899333e-05 5.898818e-05 5.897525e-05 5.896043e-05 5.895069e-05
  5.896456e-05 5.896030e-05 5.896456e-05 5.897525e-05 5.898703e-05 5.899390e-05 5.899200e-05 5.898136e-05 5.896517e-05 5.894764e-05 5.893196e-05 5.891986e-05 5.891219e-05 5.890956e-05 5.891219e-05 5.891986e-05 5.893196e-05 5.894764e-05 5.896517e-05 5.898136e-05 5.899200e-05 5.899390e-05 5.898703e-05 5.897525e-05 5.896456e-05
  5.898009e-05 5.897449e-05 5.897449e-05 5.898009e-05 5.898818e-05 5.899390e-05 5.899304e-05 5.898426e-05 5.896949e-05 5.895243e-05 5.893640e-05 5.892334e-05 5.891411e-05 5.890929e-05 5.890929e-05 5.891411e-05 5.892334e-05 5.893640e-05 5.895243e-05 5.896949e-05 5.898426e-05 5.899304e-05 5.899390e-05 5.898818e-05 5.898009e-05
  5.899019e-05 5.898615e-05 5.898439e-05 5.898615e-05 5.899019e-05 5.899333e-05 5.899200e-05 5.898426e-05 5.897092e-05 5.895485e-05 5.893916e-05 5.892585e-05 5.891580e-05 5.890945e-05 5.890726e-05 5.890945e-05 5.891580e-05 5.892585e-05 5.893916e-05 5.895485e-05 5.897092e-05 5.898426e-05 5.899200e-05 5.899333e-05 5.899019e-05
  5.899066e-05 5.898988e-05 5.898864e-05 5.898864e-05 5.898988e-05 5.899066e-05 5.898844e-05 5.898136e-05 5.896949e-05 5.895485e-05 5.894009e-05 5.892716e-05 5.891694e-05 5.890976e-05 5.890601e-05 5.890601e-05 5.890976e-05 5.891694e-05 5.892716e-05 5.894009e-05 5.895485e-05 5.896949e-05 5.898136e-05 5.898844e-05 5.899066e-05
  5.898149e-05 5.898410e-05 5.898459e-05 5.898453e-05 5.898459e-05 5.898410e-05 5.898149e-05 5.897528e-05 5.896517e-05 5.895243e-05 5.893916e-05 5.892716e-05 5.891734e-05 5.891000e-05 5.890537e-05 5.890378e-05 5.890537e-05 5.891000e-05 5.891734e-05 5.892716e-05 5.893916e-05 5.895243e-05 5.896517e-05 5.897528e-05 5.898149e-05
  5.896600e-05 5.897089e-05 5.897315e-05 5.897385e-05 5.897385e-05 5.897315e-05 5.897089e-05 5.896600e-05 5.895801e-05 5.894764e-05 5.893640e-05 5.892585e-05 5.891694e-05 5.891000e-05 5.890518e-05 5.890269e-05 5.890269e-05 5.890518e-05 5.891000e-05 5.891694e-05 5.892585e-05 5.893640e-05 5.894764e-05 5.895801e-05 5.896600e-05
  5.894851e-05 5.895418e-05 5.895752e-05 5.895902e-05 5.895940e-05 5.895902e-05 5.895752e-05 5.895418e-05 5.894851e-05 5.894077e-05 5.893196e-05 5.892334e-05 5.891580e-05 5.890976e-05 5.890537e-05 5.890269e-05 5.890178e-05 5.890269e-05 5.890537e-05 5.890976e-05 5.891580e-05 5.892334e-05 5.893196e-05 5.894077e-05 5.894851e-05
  5.893247e-05 5.893765e-05 5.894120e-05 5.894314e-05 5.894390e-05 5.894390e-05 5.894314e-05 5.894120e-05 5.893765e-05 5.893247e-05 5.892624e-05 5.891986e-05 5.891411e-05 5.890945e-05 5.890601e-05 5.890378e-05 5.890269e-05 5.890269e-05 5.890378e-05 5.890601e-05 5.890945e-05 5.891411e-05 5.891986e-05 5.892624e-05 5.893247e-05
  5.891989e-05 5.892369e-05 5.892668e-05 5.892859e-05 5.892952e-05 5.892979e-05 5.892952e-05 5.892859e-05 5.892668e-05 5.892369e-05 5.891989e-05 5.891586e-05 5.891219e-05 5.890929e-05 5.890726e-05 5.890601e-05 5.890537e-05 5.890518e-05 5.890537e-05 5.890601e-05 5.890726e-05 5.890929e-05 5.891219e-05 5.891586e-05 5.891989e-05
  5.891186e-05 5.891363e-05 5.891534e-05 5.891666e-05 5.891745e-05 5.891778e-05 5.891778e-05 5.891745e-05 5.891666e-05 5.891534e-05 5.891363e-05 5.891186e-05 5.891042e-05 5.890956e-05 5.890929e-05 5.890945e-05 5.890976e-05 5.891000e-05 5.891000e-05 5.890976e-05 5.890945e-05 5.890929e-05 5.890956e-05 5.891042e-05 5.891186e-05
  5.890909e-05 5.890833e-05 5.890807e-05 5.890810e-05 5.890821e-05 5.890828e-05 5.890831e-05 5.890828e-05 5.890821e-05 5.890810e-05 5.890807e-05 5.890833e-05 5.890909e-05 5.891042e-05 5.891219e-05 5.891411e-05 5.891580e-05 5.891694e-05 5.891734e-05 5.891694e-05 5.891580e-05 5.891411e-05 5.891219e-05 5.891042e-05 5.890909e-05
  5.891186e-05 5.890833e-05 5.890555e-05 5.890357e-05 5.890228e-05 5.890154e-05 5.890120e-05 5.890120e-05 5.890154e-05 5.890228e-05 5.890357e-05 5.890555e-05 5.890833e-05 5.891186e-05 5.891586e-05 5.891986e-05 5.892334e-05 5.892585e-05 5.892716e-05 5.892716e-05 5.892585e-05 5.892334e-05 5.891986e-05 5.891586e-05 5.891186e-05
  5.891989e-05 5.891363e-05 5.890807e-05 5.890357e-05 5.890021e-05 5.889797e-05 5.889670e-05 5.889629e-05 5.889670e-05 5.889797e-05 5.890021e-05 5.890357e-05 5.890807e-05 5.891363e-05 5.891989e-05 5.892624e-05 5.893196e-05 5.893640e-05 5.893916e-05 5.894009e-05 5.893916e-05 5.893640e-05 5.893196e-05 5.892624e-05 5.891989e-05
  5.893247e-05 5.892369e-05 5.891534e-05 5.890810e-05 5.890228e-05 5.889797e-05 5.889514e-05 5.889375e-05 5.889375e-05 5.889514e-05 5.889797e-05 5.890228e-05 5.890810e-05 5.891534e-05 5.892369e-05 5.893247e-05 5.894077e-05 5.894764e-05 5.895243e-05 5.895485e-05 5.895485e-05 5.895243e-05 5.894764e-05 5.894077e-05 5.893247e-05
  5.894851e-05 5.893765e-05 5.892668e-05 5.891666e-05 5.890821e-05 5.890154e-05 5.889670e-05 5.889375e-05 5.889276e-05 5.889375e-05 5.889670e-05 5.890154e-05 5.890821e-05 5.891666e-05 5.892668e-05 5.893765e-05 5.894851e-05 5.895801e-05 5.896517e-05 5.896949e-05 5.897092e-05 5.896949e-05 5.896517e-05 5.895801e-05 5.894851e-05
  5.896600e-05 5.895418e-05 5.894120e-05 5.892859e-05 5.891745e-05 5.890828e-05 5.890120e-05 5.889629e-05 5.889375e-05 5.889375e-05 5.889629e-05 5.890120e-05 5.890828e-05 5.891745e-05 5.892859e-05 5.894120e-05 5.895418e-05 5.896600e-05 5.897528e-05 5.898136e-05 5.898426e-05 5.898426e-05 5.898136e-05 5.897528e-05 5.896600e-05
  5.898149e-05 5.897089e-05 5.895752e-05 5.894314e-05 5.892952e-05 5.891778e-05 5.890831e-05 5.890120e-05 5.889670e-05 5.889514e-05 5.889670e-05 5.890120e-05 5.890831e-05 5.891778e-05 5.892952e-05 5.894314e-05 5.895752e-05 5.897089e-05 5.898149e-05 5.898844e-05 5.899200e-05 5.899304e-05 5.899200e-05 5.898844e-05 5.898149e-05
  5.899066e-05 5.898410e-05 5.897315e-05 5.895902e-05 5.894390e-05 5.892979e-05 5.891778e-05 5.890828e-05 5.890154e-05 5.889797e-05 5.889797e-05 5.890154e-05 5.890828e-05 5.891778e-05 5.892979e-05 5.894390e-05 5.895902e-05 5.897315e-05 5.898410e-05 5.899066e-05 5.899333e-05 5.899390e-05 5.899390e-05 5.899333e-05 5.899066e-05
  5.899019e-05 5.898988e-05 5.898459e-05 5.897385e-05 5.895940e-05 5.894390e-05 5.892952e-05 5.891745e-05 5.890821e-05 5.890228e-05 5.890021e-05 5.890228e-05 5.890821e-05 5.891745e-05 5.892952e-05 5.894390e-05 5.895940e-05 5.897385e-05 5.898459e-05 5.898988e-05 5.899019e-05 5.898818e-05 5.898703e-05 5.898818e-05 5.899019e-05
  5.898009e-05 5.898615e-05 5.898864e-05 5.898453e-05 5.897385e-05 5.895902e-05 5.894314e-05 5.892859e-05 5.891666e-05 5.890810e-05 5.890357e-05 5.890357e-05 5.890810e-05 5.891666e-05 5.892859e-05 5.894314e-05 5.895902e-05 5.897385e-05 5.898453e-05 5.898864e-05 5.898615e-05 5.898009e-05 5.897525e-05 5.897525e-05 5.898009e-05
  5.896456e-05 5.897449e-05 5.898439e-05 5.898864e-05 5.898459e-05 5.897315e-05 5.895752e-05 5.894120e-05 5.892668e-05 5.891534e-05 5.890807e-05 5.890555e-05 5.890807e-05 5.891534e-05 5.892668e-05 5.894120e-05 5.895752e-05 5.897315e-05 5.898459e-05 5.898864e-05 5.898439e-05 5.897449e-05 5.896456e-05 5.896043e-05 5.896456e-05
  5.895069e-05 5.896030e-05 5.897449e-05 5.898615e-05 5.898988e-05 5.898410e-05 5.897089e-05 5.895418e-05 5.893765e-05 5.892369e-05 5.891363e-05 5.890833e-05 5.890833e-05 5.891363e-05 5.892369e-05 5.893765e-05 5.895418e-05 5.897089e-05 5.898410e-05 5.898988e-05 5.898615e-05 5.897449e-05 5.896030e-05 5.895069e-05 5.895069e-05
  5.894515e-05 5.895069e-05 5.896456e-05 5.898009e-05 5.899019e-05 5.899066e-05 5.898149e-05 5.896600e-05 5.894851e-05 5.893247e-05 5.891989e-05 5.891186e-05 5.890909e-05 5.891186e-05 5.891989e-05 5.893247e-05 5.894851e-05 5.896600e-05 5.898149e-05 5.899066e-05 5.899019e-05 5.898009e-05 5.896456e-05 5.895069e-05 5.894515e-05
  5.896498e-05 5.896728e-05 5.897315e-05 5.897976e-05 5.898328e-05 5.898068e-05 5.897146e-05 5.895774e-05 5.894273e-05 5.892905e-05 5.891825e-05 5.891127e-05 5.890885e-05 5.891127e-05 5.891825e-05 5.892905e-05 5.894273e-05 5.895774e-05 5.897146e-05 5.898068e-05 5.898328e-05 5.897976e-05 5.897315e-05 5.896728e-05 5.896498e-05
  5.896728e-05 5.896728e-05 5.897151e-05 5.897815e-05 5.898379e-05 5.898461e-05 5.897856e-05 5.896654e-05 5.895156e-05 5.893681e-05 5.892436e-05 5.891537e-05 5.891061e-05 5.891061e-05 5.891537e-05 5.892436e-05 5.893681e-05 5.895156e-05 5.896654e-05 5.897856e-05 5.898461e-05 5.898379e-05 5.897815e-05 5.897151e-05 5.896728e-05
  5.897315e-05 5.897121e-05 5.897315e-05 5.897815e-05 5.898370e-05 5.898614e-05 5.898256e-05 5.897254e-05 5.895836e-05 5.894330e-05 5.892986e-05 5.891940e-05 5.891269e-05 5.891036e-05 5.891269e-05 5.891940e-05 5.892986e-05 5.894330e-05 5.895836e-05 5.897254e-05 5.898256e-05 5.898614e-05 5.898370e-05 5.897815e-05 5.897315e-05
  5.897976e-05 5.897698e-05 5.897698e-05 5.897976e-05 5.898379e-05 5.898614e-05 5.898381e-05 5.897551e-05 5.896257e-05 5.894790e-05 5.893416e-05 5.892287e-05 5.891480e-05 5.891054e-05 5.891054e-05 5.891480e-05 5.892287e-05 5.893416e-05 5.894790e-05 5.896257e-05 5.897551e-05 5.898381e-05 5.898614e-05 5.898379e-05 5.897976e-05
  5.898328e-05 5.898113e-05 5.898018e-05 5.898113e-05 5.898328e-05 5.898461e-05 5.898256e-05 5.897551e-05 5.896399e-05 5.895026e-05 5.893686e-05 5.892539e-05 5.891662e-05 5.891100e-05 5.890905e-05 5.891100e-05 5.891662e-05 5.892539e-05 5.893686e-05 5.895026e-05 5.896399e-05 5.897551e-05 5.898256e-05 5.898461e-05 5.898328e-05
  5.898068e-05 5.898042e-05 5.897969e-05 5.897969e-05 5.898042e-05 5.898068e-05 5.897856e-05 5.897254e-05 5.896257e-05 5.895026e-05 5.893777e-05 5.892671e-05 5.891783e-05 5.891151e-05 5.890817e-05 5.890817e-05 5.891151e-05 5.891783e-05 5.892671e-05 5.893777e-05 5.895026e-05 5.896257e-05 5.897254e-05 5.897856e-05 5.898068e-05
  5.897146e-05 5.897344e-05 5.897376e-05 5.897370e-05 5.897376e-05 5.897344e-05 5.897146e-05 5.896654e-05 5.895836e-05 5.894790e-05 5.893686e-05 5.892671e-05 5.891826e-05 5.891183e-05 5.890774e-05 5.890632e-05 5.890774e-05 5.891183e-05 5.891826e-05 5.892671e-05 5.893686e-05 5.894790e-05 5.895836e-05 5.896654e-05 5.897146e-05
  5.895774e-05 5.896135e-05 5.896286e-05 5.896325e-05 5.896325e-05 5.896286e-05 5.896135e-05 5.895774e-05 5.895156e-05 5.894330e-05 5.893416e-05 5.892539e-05 5.891783e-05 5.891183e-05 5.890762e-05 5.890542e-05 5.890542e-05 5.890762e-05 5.891183e-05 5.891783e-05 5.892539e-05 5.893416e-05 5.894330e-05 5.895156e-05 5.895774e-05
  5.894273e-05 5.894689e-05 5.894916e-05 5.895005e-05 5.895025e-05 5.895005e-05 5.894916e-05 5.894689e-05 5.894273e-05 5.893681e-05 5.892986e-05 5.892287e-05 5.891662e-05 5.891151e-05 5.890774e-05 5.890542e-05 5.890464e-05 5.890542e-05 5.890774e-05 5.891151e-05 5.891662e-05 5.892287e-05 5.892986e-05 5.893681e-05 5.894273e-05
  5.892905e-05 5.893279e-05 5.893518e-05 5.893634e-05 5.893672e-05 5.893672e-05 5.893634e-05 5.893518e-05 5.893279e-05 5.892905e-05 5.892436e-05 5.891940e-05 5.891480e-05 5.891100e-05 5.890817e-05 5.890632e-05 5.890542e-05 5.890542e-05 5.890632e-05 5.890817e-05 5.891100e-05 5.891480e-05 5.891940e-05 5.892436e-05 5.892905e-05
  5.891825e-05 5.892085e-05 5.892276e-05 5.892384e-05 5.892427e-05 5.892437e-05 5.892427e-05 5.892384e-05 5.892276e-05 5.892085e-05 5.891825e-05 5.891537e-05 5.891269e-05 5.891054e-05 5.890905e-05 5.890817e-05 5.890774e-05 5.890762e-05 5.890774e-05 5.890817e-05 5.890905e-05 5.891054e-05 5.891269e-05 5.891537e-05 5.891825e-05
  5.891127e-05 5.891216e-05 5.891298e-05 5.891352e-05 5.891375e-05 5.891379e-05 5.891379e-05 5.891375e-05 5.891352e-05 5.891298e-05 5.891216e-05 5.891127e-05 5.891061e-05 5.891036e-05 5.891054e-05 5.891100e-05 5.891151e-05 5.891183e-05 5.891183e-05 5.891151e-05 5.891100e-05 5.891054e-05 5.891036e-05 5.891061e-05 5.891127e-05
  5.890885e-05 5.890753e-05 5.890663e-05 5.890602e-05 5.890559e-05 5.890532e-05 5.890522e-05 5.890532e-05 5.890559e-05 5.890602e-05 5.890663e-05 5.890753e-05 5.890885e-05 5.891061e-05 5.891269e-05 5.891480e-05 5.891662e-05 5.891783e-05 5.891826e-05 5.891783e-05 5.891662e-05 5.891480e-05 5.891269e-05 5.891061e-05 5.890885e-05
  5.891127e-05 5.890753e-05 5.890440e-05 5.890200e-05 5.890031e-05 5.889924e-05 5.889873e-05 5.889873e-05 5.889924e-05 5.890031e-05 5.890200e-05 5.890440e-05 5.890753e-05 5.891127e-05 5.891537e-05 5.891940e-05 5.892287e-05 5.892539e-05 5.892671e-05 5.892671e-05 5.892539e-05 5.892287e-05 5.891940e-05 5.891537e-05 5.891127e-05
  5.891825e-05 5.891216e-05 5.890663e-05 5.890200e-05 5.889845e-05 5.889601e-05 5.889459e-05 5.889413e-05 5.889459e-05 5.889601e-05 5.889845e-05 5.890200e-05 5.890663e-05 5.891216e-05 5.891825e-05 5.892436e-05 5.892986e-05 5.893416e-05 5.893686e-05 5.893777e-05 5.893686e-05 5.893416e-05 5.892986e-05 5.892436e-05 5.891825e-05