
*************** JDFTx 1.4.2  ***************

Start date and time: Tue Mar 19 06:29:23 2019
Executable jdftx with command-line: -i Charged.in
Running on hosts (process indices):  Juans-MBP.lan1 (0-3)
Divided in process groups (process indices):  0 (0)  1 (1)  2 (2)  3 (3)
Resource initialization completed at t[s]:      0.00
Run totals: 4 processes, 12 threads, 0 GPUs


Input parsed successfully to the following command list (including defaults):

basis kpoint-dependent
coords-type Lattice
core-overlap-check vector
coulomb-interaction Slab 001
coulomb-truncation-embed 0 0 0
davidson-band-ratio 1.1
dump End State BoundCharge
dump-name common.$VAR
elec-cutoff 20 100
elec-eigen-algo Davidson
elec-ex-corr gga-PBEsol
elec-smearing Fermi 0.01
electronic-minimize  \
	dirUpdateScheme      FletcherReeves \
	linminMethod         DirUpdateRecommended \
	nIterations          200 \
	history              15 \
	knormThreshold       0 \
	energyDiffThreshold  1e-08 \
	nEnergyDiff          2 \
	alphaTstart          1 \
	alphaTmin            1e-10 \
	updateTestStepSize   yes \
	alphaTreduceFactor   0.1 \
	alphaTincreaseFactor 3 \
	nAlphaAdjustMax      3 \
	wolfeEnergy          0.0001 \
	wolfeGradient        0.9 \
	fdTest               no
exchange-regularization WignerSeitzTruncated
fluid LinearPCM 298.000000 1.013250
fluid-anion F- 1 MeanFieldLJ \
	epsBulk 1 \
	pMol 0 \
	epsInf 1 \
	Pvap 0 \
	sigmaBulk 0 \
	Rvdw 2.24877 \
	Res 0
fluid-cation Na+ 1 MeanFieldLJ \
	epsBulk 1 \
	pMol 0 \
	epsInf 1 \
	Pvap 0 \
	sigmaBulk 0 \
	Rvdw 2.19208 \
	Res 0
fluid-ex-corr lda-TF lda-PZ
fluid-gummel-loop 10 1.000000e-05
fluid-minimize  \
	dirUpdateScheme      PolakRibiere \
	linminMethod         DirUpdateRecommended \
	nIterations          400 \
	history              15 \
	knormThreshold       1e-11 \
	energyDiffThreshold  0 \
	nEnergyDiff          2 \
	alphaTstart          1 \
	alphaTmin            1e-10 \
	updateTestStepSize   yes \
	alphaTreduceFactor   0.1 \
	alphaTincreaseFactor 3 \
	nAlphaAdjustMax      6 \
	wolfeEnergy          0.0001 \
	wolfeGradient        0.9 \
	fdTest               no
fluid-solvent H2O 55.338 ScalarEOS \
	epsBulk 78.4 \
	pMol 0.92466 \
	epsInf 1.77 \
	Pvap 1.06736e-10 \
	sigmaBulk 4.62e-05 \
	Rvdw 2.61727 \
	Res 1.42
forces-output-coords Positions
initial-state common.$VAR
ion Pt   0.333333000000000  -0.333333000000000  -0.237676000000000 1
ion Pt  -0.333333000000000   0.333333000000000  -0.118838000000000 1
ion Pt   0.000000000000000   0.000000000000000   0.000000000000000 1
ion Pt   0.333333000000000  -0.333333000000000   0.118838000000000 1
ion Pt  -0.333333000000000   0.333333000000000   0.237676000000000 1
ion-species GBRV/$ID_pbesol.uspp
ion-width Ecut
ionic-minimize  \
	dirUpdateScheme      L-BFGS \
	linminMethod         DirUpdateRecommended \
	nIterations          0 \
	history              15 \
	knormThreshold       0.0001 \
	energyDiffThreshold  1e-06 \
	nEnergyDiff          2 \
	alphaTstart          1 \
	alphaTmin            1e-10 \
	updateTestStepSize   yes \
	alphaTreduceFactor   0.1 \
	alphaTincreaseFactor 3 \
	nAlphaAdjustMax      3 \
	wolfeEnergy          0.0001 \
	wolfeGradient        0.9 \
	fdTest               no
kpoint   0.000000000000   0.000000000000   0.000000000000  1.00000000000000
kpoint-folding 12 12 1 
latt-move-scale 1 1 1
latt-scale 1 1 1 
lattice Hexagonal 5.23966 36
lattice-minimize  \
	dirUpdateScheme      L-BFGS \
	linminMethod         DirUpdateRecommended \
	nIterations          0 \
	history              15 \
	knormThreshold       0 \
	energyDiffThreshold  1e-06 \
	nEnergyDiff          2 \
	alphaTstart          1 \
	alphaTmin            1e-10 \
	updateTestStepSize   yes \
	alphaTreduceFactor   0.1 \
	alphaTincreaseFactor 3 \
	nAlphaAdjustMax      3 \
	wolfeEnergy          0.0001 \
	wolfeGradient        0.9 \
	fdTest               no
lcao-params -1 1e-06 0.01
pcm-variant CANDLE
spintype no-spin
subspace-rotation-factor 1 yes
symmetries automatic
symmetry-threshold 0.0001
target-mu -0.2052 no




---------- Setting up symmetries ----------

Found 24 point-group symmetries of the bravais lattice
Found 12 space-group symmetries with basis
Applied RMS atom displacement 2.70575e-06 bohrs to make symmetries exact.

---------- Initializing the Grid ----------
R = 
[    5.23966   -2.61983          0  ]
[          0    4.53768          0  ]
[          0          0         36  ]
unit cell volume = 855.932
G =
[    1.19916   0.692335         -0  ]
[          0    1.38467          0  ]
[          0         -0   0.174533  ]
Minimum fftbox size, Smin = [  24  24  164  ]
Chosen fftbox size, S = [  24  24  168  ]

---------- Initializing tighter grid for wavefunction operations ----------
R = 
[    5.23966   -2.61983          0  ]
[          0    4.53768          0  ]
[          0          0         36  ]
unit cell volume = 855.932
G =
[    1.19916   0.692335         -0  ]
[          0    1.38467          0  ]
[          0         -0   0.174533  ]
Minimum fftbox size, Smin = [  24  24  148  ]
Chosen fftbox size, S = [  24  24  150  ]

---------- Exchange Correlation functional ----------
Initalized PBEsol GGA exchange.
Initalized PBEsol GGA correlation.

---------- Setting up pseudopotentials ----------
Width of ionic core gaussian charges (only for fluid interactions / plotting) set to 0.397384

Reading pseudopotential file '/Users/juanmendezvalderrama/Documents/JDFTX/build/pseudopotentials/GBRV/pt_pbesol.uspp':
  Title: Pt.  Created by USPP 7.3.6 on 22-9-15
  Reference state energy: -104.899005.  16 valence electrons in orbitals:
    |510>  occupation: 6  eigenvalue: -2.158847
    |520>  occupation: 9.5  eigenvalue: -0.336311
    |600>  occupation: 0  eigenvalue: -0.320324
    |610>  occupation: 0  eigenvalue: -0.119800
  lMax: 2  lLocal: 3  QijEcut: 5.5
  6 projectors sampled on a log grid with 745 points:
    l: 0  eig: -0.320324  rCut: 2.45
    l: 0  eig: 1.500000  rCut: 2.45
    l: 1  eig: -2.158847  rCut: 1.6
    l: 1  eig: -0.119800  rCut: 1.6
    l: 2  eig: -0.500000  rCut: 1.6
    l: 2  eig: -0.336311  rCut: 1.6
  Partial core density with radius 1.1
  Transforming core density to a uniform radial grid of dG=0.02 with 1620 points.
  Transforming local potential to a uniform radial grid of dG=0.02 with 1620 points.
  Transforming nonlocal projectors to a uniform radial grid of dG=0.02 with 432 points.
  Transforming density augmentations to a uniform radial grid of dG=0.02 with 1620 points.
  Transforming atomic orbitals to a uniform radial grid of dG=0.02 with 432 points.
  Core radius for overlap checks: 2.45 bohrs.

Initialized 1 species with 5 total atoms.

Folded 1 k-points by 12x12x1 to 144 k-points.

---------- Setting up k-points, bands, fillings ----------
Reduced to 19 k-points under symmetry. 
Computing the number of bands and number of electrons
Reading initial fillings from file common.fillings.
nElectrons:  79.980619   nBands: 60   nStates: 19

----- Setting up reduced wavefunction bases (one per k-point) -----
average nbasis = 3657.132 , ideal nbasis = 3656.607

---------- Setting up coulomb interaction ----------
Fluid mode embedding: using embedded box, but periodic Coulomb kernel.
(Fluid response is responsible for (approximate) separation between periodic images.)
Setting up double-sized grid for truncated Coulomb potentials:
R = 
[    5.23966   -2.61983          0  ]
[          0    4.53768          0  ]
[          0          0         72  ]
unit cell volume = 1711.86
G =
[    1.19916   0.692335         -0  ]
[          0    1.38467          0  ]
[          0         -0  0.0872665  ]
Chosen fftbox size, S = [  24  24  336  ]
Integer grid location selected as the embedding center:
   Grid: [  0  0  0  ]
   Lattice: [  0  0  0  ]
   Cartesian: [  0  0  0  ]
Constructing Wigner-Seitz cell: 8 faces (6 quadrilaterals, 2 hexagons)
Range-separation parameter for embedded mesh potentials due to point charges: 0.589462 bohrs.

Initializing van der Waals corrections
	NOTE: vdW corrections apply only for interactions with fluid.
	Pt:  C6:  815.23 Eh-a0^6  R0: 3.326 a0 (WARNING: beyond Grimme's data set)

---------- Setting up ewald sum ----------
Optimum gaussian width for ewald sums = 3.649540 bohr.
Real space sum over 1805 unit cells with max indices [  9  9  2  ]
Reciprocal space sum over 5103 terms with max indices [  4  4  31  ]

---------- Allocating electronic variables ----------
Initializing wave functions:  reading from 'common.wfns'
----- createFluidSolver() ----- (Fluid-side solver setup)
   Initializing fluid molecule 'H2O'
     Initializing site 'O'
       Electron density: proportional to exp(-r/0.36935)*erfc((r-0.51523)/0.36823) with norm 6.826
       Charge density: gaussian nuclear width 0.478731 with net site charge 0.826
       Polarizability: cuspless exponential with width 0.32 and norm 3.73
       Hard sphere radius: 2.57003 bohrs
       Positions in reference frame:
         [ +0.000000 +0.000000 +0.000000 ]
     Initializing site 'H'
       Electron density: proportional to exp(-r/0.34641)*erfc((r-0)/0.390882) with norm 0.587
       Charge density: gaussian nuclear width 0.377945 with net site charge -0.413
       Polarizability: cuspless exponential with width 0.39 and norm 3.3
       Positions in reference frame:
         [ +0.000000 -1.441945 +1.122523 ]
         [ +0.000000 +1.441945 +1.122523 ]
     Net charge: 0   dipole magnitude: 0.927204
     Initializing spherical shell mfKernel with radius 2.61727 Bohr
     deltaS corrections:
       site 'O': -7.54299
       site 'H': -6.83917
   Initializing fluid molecule 'Na+'
     Initializing site 'Na'
       Electron density: proportional to exp(-r/0.19682)*erfc((r-0.71491)/0.41314) with norm 8.1383
       Charge density: gaussian nuclear width 0.365347 with net site charge -1
       Hard sphere radius: 1.86327 bohrs
       Positions in reference frame:
         [ +0.000000 +0.000000 +0.000000 ]
     Net charge: -1   dipole magnitude: 0
     Initializing gaussian mfKernel with width: 1.55004 Bohr
     deltaS corrections:
       site 'Na': -22.3555
   Initializing fluid molecule 'F-'
     Initializing site 'F'
       Electron density: proportional to exp(-r/0.38886)*erfc((r-0)/0.438782) with norm 8
       Charge density: gaussian nuclear width 0.374796 with net site charge 1
       Hard sphere radius: 2.39995 bohrs
       Positions in reference frame:
         [ +0.000000 +0.000000 +0.000000 ]
     Net charge: 1   dipole magnitude: 0
     Initializing gaussian mfKernel with width: 1.59012 Bohr
     deltaS corrections:
       site 'F': -9.04335

Correction to mu due to finite nuclear width = -0.0463682
   Cavity determined by nc: 0.00142 and sigma: 0.707107
   Nonlocal vdW cavity from gaussian model electron density with norm = 8 and sigma = 0.993594 bohr
   Charge asymmetry in cavity with sensitivity pCavity = 36.5 e-bohr/Eh
   Electrostatic cavity expanded by eta = 1.46 bohrs
   Weighted density cavitation model constrained by Nbulk: 0.0049383 bohr^-3, Pvap: 3.14029 kPa, Rvdw: 2.61727 bohr and sigmaBulk: 4.62e-05 Eh/bohr^2 at T: 298 K.
   Weighted density dispersion model using vdW pair potentials with single solvent site with sqrtC6eff: 0.77 SI.
Reading fluid state from 'common.fluidState'


---- Citations for features of the code used in this run ----

   Software package:
      R. Sundararaman, K. Letchworth-Weaver, K.A. Schwarz, D. Gunceler, Y. Ozhabes and T.A. Arias, 'JDFTx: software for joint density-functional theory', SoftwareX 6, 278 (2017)

   gga-PBEsol exchange-correlation functional:
      J.P. Perdew et al., Phys. Rev. Lett. 100, 136406 (2008)

   Pseudopotentials:
      KF Garrity, JW Bennett, KM Rabe and D Vanderbilt, Comput. Mater. Sci. 81, 446 (2014)

   Truncated Coulomb potentials:
      R. Sundararaman and T.A. Arias, Phys. Rev. B 87, 165122 (2013)

   Van der Waals correction pair-potentials:
      S. Grimme, J. Comput. Chem. 27, 1787 (2006)

   Charge-asymmetric nonlocally-determined local-electric (CANDLE) solvation model:
      R. Sundararaman and W.A. Goddard III, J. Chem. Phys. 142, 064107 (2015)

   Total energy minimization with Auxiliary Hamiltonian:
      C. Freysoldt, S. Boeck, and J. Neugebauer, Phys. Rev. B 79, 241103(R) (2009)

   Grand-canonical (fixed-potential) DFT:
      R. Sundararaman, W. A. Goddard III and T. A. Arias, J. Chem. Phys. 146, 114104 (2017)

This list may not be complete. Please suggest additional citations or
report any other bugs at https://github.com/shankar1729/jdftx/issues

Initialization completed successfully at t[s]:      2.64

Shifting auxilliary hamiltonian by 0.003655 to set nElectrons=79.980619
	Linear fluid (dielectric constant: 78.4, screening length: 5.74355 Bohr) occupying 0.597213 of unit cell:	Completed after 12 iterations at t[s]:      4.37

-------- Electronic minimization -----------
	Linear fluid (dielectric constant: 78.4, screening length: 5.74355 Bohr) occupying 0.597213 of unit cell:	Completed after 0 iterations at t[s]:      5.16
	FillingsUpdate:  mu: -0.205200000  nElectrons: 79.980619
ElecMinimize: Iter:   0  G: -428.735246590228940  |grad|_K:  1.353e-05  alpha:  1.000e+00
	Linear fluid (dielectric constant: 78.4, screening length: 5.74355 Bohr) occupying 0.646670 of unit cell:	Completed after 35 iterations at t[s]:      8.67
	Linear fluid (dielectric constant: 78.4, screening length: 5.74355 Bohr) occupying 0.597210 of unit cell:	Completed after 24 iterations at t[s]:     10.39
	FillingsUpdate:  mu: -0.205200000  nElectrons: 79.983739
	SubspaceRotationAdjust: set factor to 0.508
ElecMinimize: Iter:   1  G: -428.735249379036077  |grad|_K:  1.049e-05  alpha:  6.074e-03  linmin:  1.027e-01  t[s]:     11.68
	Linear fluid (dielectric constant: 78.4, screening length: 5.74355 Bohr) occupying 0.597206 of unit cell:	Completed after 12 iterations at t[s]:     13.07
ElecMinimize: 	Predicted alpha/alphaT>3.000000, increasing alphaT to 1.822060e-02.
	Linear fluid (dielectric constant: 78.4, screening length: 5.74355 Bohr) occupying 0.597196 of unit cell:	Completed after 13 iterations at t[s]:     14.49
	Linear fluid (dielectric constant: 78.4, screening length: 5.74355 Bohr) occupying 0.597193 of unit cell:	Completed after 12 iterations at t[s]:     15.84
	FillingsUpdate:  mu: -0.205200000  nElectrons: 79.984290
	SubspaceRotationAdjust: set factor to 0.193
ElecMinimize: Iter:   2  G: -428.735255475249346  |grad|_K:  2.339e-06  alpha:  2.209e-02  linmin:  1.967e-04  t[s]:     17.07
	Linear fluid (dielectric constant: 78.4, screening length: 5.74355 Bohr) occupying 0.597187 of unit cell:	Completed after 11 iterations at t[s]:     18.41
	Linear fluid (dielectric constant: 78.4, screening length: 5.74355 Bohr) occupying 0.597190 of unit cell:	Completed after 10 iterations at t[s]:     19.70
	FillingsUpdate:  mu: -0.205200000  nElectrons: 79.984980
	SubspaceRotationAdjust: set factor to 0.125
	SubspaceRotationAdjust: resetting CG because factor has changed by 0.12515
	Linear fluid (dielectric constant: 78.4, screening length: 5.74355 Bohr) occupying 0.597190 of unit cell:	Completed after 0 iterations at t[s]:     21.55
ElecMinimize: 	State modified externally: resetting search direction.
ElecMinimize: Iter:   3  G: -428.735255769866740  |grad|_K:  1.221e-06  alpha:  1.281e-02
	Linear fluid (dielectric constant: 78.4, screening length: 5.74355 Bohr) occupying 0.597189 of unit cell:	Completed after 9 iterations at t[s]:     24.09
ElecMinimize: 	Predicted alpha/alphaT>3.000000, increasing alphaT to 3.841622e-02.
	Linear fluid (dielectric constant: 78.4, screening length: 5.74355 Bohr) occupying 0.597188 of unit cell:	Completed after 10 iterations at t[s]:     25.38
	Linear fluid (dielectric constant: 78.4, screening length: 5.74355 Bohr) occupying 0.597187 of unit cell:	Completed after 9 iterations at t[s]:     26.65
	FillingsUpdate:  mu: -0.205200000  nElectrons: 79.984413
	SubspaceRotationAdjust: set factor to 0.0733
ElecMinimize: Iter:   4  G: -428.735256204817915  |grad|_K:  1.430e-06  alpha:  6.946e-02  linmin: -4.915e-05  t[s]:     27.91
	Linear fluid (dielectric constant: 78.4, screening length: 5.74355 Bohr) occupying 0.597180 of unit cell:	Completed after 9 iterations at t[s]:     29.20
ElecMinimize: 	Predicted alpha/alphaT>3.000000, increasing alphaT to 2.083827e-01.
	Linear fluid (dielectric constant: 78.4, screening length: 5.74355 Bohr) occupying 0.597166 of unit cell:	Completed after 10 iterations at t[s]:     30.48
	Linear fluid (dielectric constant: 78.4, screening length: 5.74355 Bohr) occupying 0.597163 of unit cell:	Completed after 6 iterations at t[s]:     31.68
	FillingsUpdate:  mu: -0.205200000  nElectrons: 79.985684
	SubspaceRotationAdjust: set factor to 0.0999
ElecMinimize: Iter:   5  G: -428.735258250656955  |grad|_K:  7.741e-07  alpha:  2.378e-01  linmin: -2.105e-04  t[s]:     32.94
	Linear fluid (dielectric constant: 78.4, screening length: 5.74355 Bohr) occupying 0.597149 of unit cell:	Completed after 10 iterations at t[s]:     34.25
	Linear fluid (dielectric constant: 78.4, screening length: 5.74355 Bohr) occupying 0.597124 of unit cell:	Completed after 11 iterations at t[s]:     35.56
	FillingsUpdate:  mu: -0.205200000  nElectrons: 79.987226
	SubspaceRotationAdjust: set factor to 0.0759
ElecMinimize: Iter:   6  G: -428.735259907162117  |grad|_K:  9.215e-07  alpha:  6.511e-01  linmin: -4.724e-04  t[s]:     36.86
	Linear fluid (dielectric constant: 78.4, screening length: 5.74355 Bohr) occupying 0.597040 of unit cell:	Completed after 13 iterations at t[s]:     38.25
	Linear fluid (dielectric constant: 78.4, screening length: 5.74355 Bohr) occupying 0.597114 of unit cell:	Completed after 11 iterations at t[s]:     39.58
	FillingsUpdate:  mu: -0.205200000  nElectrons: 79.986878
	SubspaceRotationAdjust: set factor to 0.0529
ElecMinimize: Iter:   7  G: -428.735260195329261  |grad|_K:  9.188e-07  alpha:  7.951e-02  linmin: -9.336e-05  t[s]:     40.85
	Linear fluid (dielectric constant: 78.4, screening length: 5.74355 Bohr) occupying 0.597101 of unit cell:	Completed after 2 iterations at t[s]:     41.89
ElecMinimize: 	Predicted alpha/alphaT>3.000000, increasing alphaT to 2.385229e-01.
	Linear fluid (dielectric constant: 78.4, screening length: 5.74355 Bohr) occupying 0.597074 of unit cell:	Completed after 5 iterations at t[s]:     43.02
	Linear fluid (dielectric constant: 78.4, screening length: 5.74355 Bohr) occupying 0.597046 of unit cell:	Completed after 5 iterations at t[s]:     44.18
	FillingsUpdate:  mu: -0.205200000  nElectrons: 79.987595
	SubspaceRotationAdjust: set factor to 0.0628
ElecMinimize: Iter:   8  G: -428.735261647811342  |grad|_K:  9.160e-07  alpha:  4.082e-01  linmin:  5.924e-06  t[s]:     45.47
	Linear fluid (dielectric constant: 78.4, screening length: 5.74355 Bohr) occupying 0.596965 of unit cell:	Completed after 12 iterations at t[s]:     46.85
	Linear fluid (dielectric constant: 78.4, screening length: 5.74355 Bohr) occupying 0.597019 of unit cell:	Completed after 12 iterations at t[s]:     48.19
	FillingsUpdate:  mu: -0.205200000  nElectrons: 79.988481
	SubspaceRotationAdjust: set factor to 0.0466
ElecMinimize: Iter:   9  G: -428.735262129566820  |grad|_K:  1.011e-06  alpha:  1.367e-01  linmin: -1.553e-06  t[s]:     49.43
	Linear fluid (dielectric constant: 78.4, screening length: 5.74355 Bohr) occupying 0.596983 of unit cell:	Completed after 9 iterations at t[s]:     50.70
	Linear fluid (dielectric constant: 78.4, screening length: 5.74355 Bohr) occupying 0.596931 of unit cell:	Completed after 10 iterations at t[s]:     51.99
	FillingsUpdate:  mu: -0.205200000  nElectrons: 79.988842
	SubspaceRotationAdjust: set factor to 0.062
ElecMinimize: Iter:  10  G: -428.735263541758854  |grad|_K:  6.344e-07  alpha:  3.288e-01  linmin:  3.421e-05  t[s]:     53.25
	Linear fluid (dielectric constant: 78.4, screening length: 5.74355 Bohr) occupying 0.596893 of unit cell:	Completed after 10 iterations at t[s]:     54.56
	Linear fluid (dielectric constant: 78.4, screening length: 5.74355 Bohr) occupying 0.596885 of unit cell:	Completed after 8 iterations at t[s]:     55.79
	FillingsUpdate:  mu: -0.205200000  nElectrons: 79.988677
	SubspaceRotationAdjust: set factor to 0.0355
ElecMinimize: Iter:  11  G: -428.735264209652428  |grad|_K:  1.038e-06  alpha:  3.956e-01  linmin:  1.752e-05  t[s]:     57.03
	Linear fluid (dielectric constant: 78.4, screening length: 5.74355 Bohr) occupying 0.596754 of unit cell:	Completed after 13 iterations at t[s]:     58.43
	Linear fluid (dielectric constant: 78.4, screening length: 5.74355 Bohr) occupying 0.596852 of unit cell:	Completed after 12 iterations at t[s]:     59.76
	FillingsUpdate:  mu: -0.205200000  nElectrons: 79.989468
	SubspaceRotationAdjust: set factor to 0.0235
ElecMinimize: Iter:  12  G: -428.735264664861177  |grad|_K:  4.100e-07  alpha:  1.005e-01  linmin: -5.959e-06  t[s]:     61.07
	Linear fluid (dielectric constant: 78.4, screening length: 5.74355 Bohr) occupying 0.596847 of unit cell:	Completed after 6 iterations at t[s]:     62.26
ElecMinimize: 	Predicted alpha/alphaT>3.000000, increasing alphaT to 3.014744e-01.
	Linear fluid (dielectric constant: 78.4, screening length: 5.74355 Bohr) occupying 0.596836 of unit cell:	Completed after 6 iterations at t[s]:     63.42
	Linear fluid (dielectric constant: 78.4, screening length: 5.74355 Bohr) occupying 0.596829 of unit cell:	Completed after 6 iterations at t[s]:     64.61
	FillingsUpdate:  mu: -0.205200000  nElectrons: 79.989791
	SubspaceRotationAdjust: set factor to 0.0197
ElecMinimize: Iter:  13  G: -428.735264980805312  |grad|_K:  3.420e-07  alpha:  4.469e-01  linmin: -2.316e-05  t[s]:     65.90
	Linear fluid (dielectric constant: 78.4, screening length: 5.74355 Bohr) occupying 0.596815 of unit cell:	Completed after 10 iterations at t[s]:     67.20
	Linear fluid (dielectric constant: 78.4, screening length: 5.74355 Bohr) occupying 0.596822 of unit cell:	Completed after 9 iterations at t[s]:     68.47
	FillingsUpdate:  mu: -0.205200000  nElectrons: 79.989568
	SubspaceRotationAdjust: set factor to 0.0129
	SubspaceRotationAdjust: resetting CG because factor has changed by 0.102835
	Linear fluid (dielectric constant: 78.4, screening length: 5.74355 Bohr) occupying 0.596822 of unit cell:	Completed after 0 iterations at t[s]:     70.33
ElecMinimize: 	State modified externally: resetting search direction.
ElecMinimize: Iter:  14  G: -428.735265091106328  |grad|_K:  2.139e-07  alpha:  2.242e-01
	Linear fluid (dielectric constant: 78.4, screening length: 5.74355 Bohr) occupying 0.596822 of unit cell:	Completed after 9 iterations at t[s]:     72.90
	Linear fluid (dielectric constant: 78.4, screening length: 5.74355 Bohr) occupying 0.596822 of unit cell:	Completed after 3 iterations at t[s]:     73.98
	FillingsUpdate:  mu: -0.205200000  nElectrons: 79.989661
	SubspaceRotationAdjust: set factor to 0.0272
ElecMinimize: Iter:  15  G: -428.735265147510177  |grad|_K:  9.594e-08  alpha:  2.924e-01  linmin: -7.300e-03  t[s]:     75.22
	Linear fluid (dielectric constant: 78.4, screening length: 5.74355 Bohr) occupying 0.596823 of unit cell:	Completed after 2 iterations at t[s]:     76.27
	Linear fluid (dielectric constant: 78.4, screening length: 5.74355 Bohr) occupying 0.596823 of unit cell:	Completed after 2 iterations at t[s]:     77.34
	FillingsUpdate:  mu: -0.205200000  nElectrons: 79.989642
	SubspaceRotationAdjust: set factor to 0.0275
ElecMinimize: Iter:  16  G: -428.735265171213712  |grad|_K:  8.990e-08  alpha:  5.919e-01  linmin: -1.871e-03  t[s]:     78.61
	Linear fluid (dielectric constant: 78.4, screening length: 5.74355 Bohr) occupying 0.596823 of unit cell:	Completed after 6 iterations at t[s]:     79.78
	Linear fluid (dielectric constant: 78.4, screening length: 5.74355 Bohr) occupying 0.596823 of unit cell:	Completed after 0 iterations at t[s]:     80.73
	FillingsUpdate:  mu: -0.205200000  nElectrons: 79.989552
	SubspaceRotationAdjust: set factor to 0.0184
ElecMinimize: Iter:  17  G: -428.735265191635960  |grad|_K:  1.421e-07  alpha:  5.884e-01  linmin: -9.109e-04  t[s]:     82.04
	Linear fluid (dielectric constant: 78.4, screening length: 5.74355 Bohr) occupying 0.596819 of unit cell:	Completed after 9 iterations at t[s]:     83.32
	Linear fluid (dielectric constant: 78.4, screening length: 5.74355 Bohr) occupying 0.596821 of unit cell:	Completed after 10 iterations at t[s]:     84.59
	FillingsUpdate:  mu: -0.205200000  nElectrons: 79.989628
	SubspaceRotationAdjust: set factor to 0.02
ElecMinimize: Iter:  18  G: -428.735265215212564  |grad|_K:  1.163e-07  alpha:  2.749e-01  linmin: -1.776e-05  t[s]:     85.91
	Linear fluid (dielectric constant: 78.4, screening length: 5.74355 Bohr) occupying 0.596818 of unit cell:	Completed after 2 iterations at t[s]:     86.98
	Linear fluid (dielectric constant: 78.4, screening length: 5.74355 Bohr) occupying 0.596813 of unit cell:	Completed after 6 iterations at t[s]:     88.15
	FillingsUpdate:  mu: -0.205200000  nElectrons: 79.989713
	SubspaceRotationAdjust: set factor to 0.0218
ElecMinimize: Iter:  19  G: -428.735265257718822  |grad|_K:  1.736e-07  alpha:  7.758e-01  linmin:  5.082e-04  t[s]:     89.39
	Linear fluid (dielectric constant: 78.4, screening length: 5.74355 Bohr) occupying 0.596791 of unit cell:	Completed after 9 iterations at t[s]:     90.66
	Linear fluid (dielectric constant: 78.4, screening length: 5.74355 Bohr) occupying 0.596803 of unit cell:	Completed after 9 iterations at t[s]:     91.90
	FillingsUpdate:  mu: -0.205200000  nElectrons: 79.989603
	SubspaceRotationAdjust: set factor to 0.0205
ElecMinimize: Iter:  20  G: -428.735265299859520  |grad|_K:  1.755e-07  alpha:  3.464e-01  linmin: -4.704e-07  t[s]:     93.17
	Linear fluid (dielectric constant: 78.4, screening length: 5.74355 Bohr) occupying 0.596791 of unit cell:	Completed after 5 iterations at t[s]:     94.33
	Linear fluid (dielectric constant: 78.4, screening length: 5.74355 Bohr) occupying 0.596783 of unit cell:	Completed after 2 iterations at t[s]:     95.39
	FillingsUpdate:  mu: -0.205200000  nElectrons: 79.989549
	SubspaceRotationAdjust: set factor to 0.0225
ElecMinimize: Iter:  21  G: -428.735265371047660  |grad|_K:  1.974e-07  alpha:  5.489e-01  linmin: -5.741e-05  t[s]:     96.69
	Linear fluid (dielectric constant: 78.4, screening length: 5.74355 Bohr) occupying 0.596755 of unit cell:	Completed after 10 iterations at t[s]:     97.97
	Linear fluid (dielectric constant: 78.4, screening length: 5.74355 Bohr) occupying 0.596761 of unit cell:	Completed after 5 iterations at t[s]:     99.11
	FillingsUpdate:  mu: -0.205200000  nElectrons: 79.989633
	SubspaceRotationAdjust: set factor to 0.0214
ElecMinimize: Iter:  22  G: -428.735265442744776  |grad|_K:  2.102e-07  alpha:  4.324e-01  linmin:  1.349e-04  t[s]:    100.42
	Linear fluid (dielectric constant: 78.4, screening length: 5.74355 Bohr) occupying 0.596736 of unit cell:	Completed after 8 iterations at t[s]:    101.67
	Linear fluid (dielectric constant: 78.4, screening length: 5.74355 Bohr) occupying 0.596743 of unit cell:	Completed after 7 iterations at t[s]:    102.86
	FillingsUpdate:  mu: -0.205200000  nElectrons: 79.989515
	SubspaceRotationAdjust: set factor to 0.0249
ElecMinimize: Iter:  23  G: -428.735265499274590  |grad|_K:  1.461e-07  alpha:  3.122e-01  linmin: -7.041e-05  t[s]:    104.15
	Linear fluid (dielectric constant: 78.4, screening length: 5.74355 Bohr) occupying 0.596734 of unit cell:	Completed after 5 iterations at t[s]:    105.30
	Linear fluid (dielectric constant: 78.4, screening length: 5.74355 Bohr) occupying 0.596726 of unit cell:	Completed after 6 iterations at t[s]:    106.48
	FillingsUpdate:  mu: -0.205200000  nElectrons: 79.989534
	SubspaceRotationAdjust: set factor to 0.0216
ElecMinimize: Iter:  24  G: -428.735265556202194  |grad|_K:  1.933e-07  alpha:  6.316e-01  linmin: -3.363e-06  t[s]:    107.78
	Linear fluid (dielectric constant: 78.4, screening length: 5.74355 Bohr) occupying 0.596695 of unit cell:	Completed after 10 iterations at t[s]:    109.08
	Linear fluid (dielectric constant: 78.4, screening length: 5.74355 Bohr) occupying 0.596711 of unit cell:	Completed after 10 iterations at t[s]:    110.37
	FillingsUpdate:  mu: -0.205200000  nElectrons: 79.989804
	SubspaceRotationAdjust: set factor to 0.0192
ElecMinimize: Iter:  25  G: -428.735265602806180  |grad|_K:  1.558e-07  alpha:  2.943e-01  linmin:  7.102e-06  t[s]:    111.67
	Linear fluid (dielectric constant: 78.4, screening length: 5.74355 Bohr) occupying 0.596703 of unit cell:	Completed after 2 iterations at t[s]:    112.73
	Linear fluid (dielectric constant: 78.4, screening length: 5.74355 Bohr) occupying 0.596701 of unit cell:	Completed after 2 iterations at t[s]:    113.78
	FillingsUpdate:  mu: -0.205200000  nElectrons: 79.989941
	SubspaceRotationAdjust: set factor to 0.0288
ElecMinimize: Iter:  26  G: -428.735265640144462  |grad|_K:  1.137e-07  alpha:  3.675e-01  linmin:  1.219e-04  t[s]:    115.04
	Linear fluid (dielectric constant: 78.4, screening length: 5.74355 Bohr) occupying 0.596695 of unit cell:	Completed after 9 iterations at t[s]:    116.32
	Linear fluid (dielectric constant: 78.4, screening length: 5.74355 Bohr) occupying 0.596695 of unit cell:	Completed after 0 iterations at t[s]:    117.26
	FillingsUpdate:  mu: -0.205200000  nElectrons: 79.989963
	SubspaceRotationAdjust: set factor to 0.0292
ElecMinimize: Iter:  27  G: -428.735265661537539  |grad|_K:  1.179e-07  alpha:  3.955e-01  linmin: -7.147e-04  t[s]:    118.54
	Linear fluid (dielectric constant: 78.4, screening length: 5.74355 Bohr) occupying 0.596688 of unit cell:	Completed after 6 iterations at t[s]:    119.73
	Linear fluid (dielectric constant: 78.4, screening length: 5.74355 Bohr) occupying 0.596689 of unit cell:	Completed after 2 iterations at t[s]:    120.79
	FillingsUpdate:  mu: -0.205200000  nElectrons: 79.990120
	SubspaceRotationAdjust: set factor to 0.0265
ElecMinimize: Iter:  28  G: -428.735265681867929  |grad|_K:  9.567e-08  alpha:  3.309e-01  linmin:  6.345e-04  t[s]:    122.10
	Linear fluid (dielectric constant: 78.4, screening length: 5.74355 Bohr) occupying 0.596685 of unit cell:	Completed after 3 iterations at t[s]:    123.18
	Linear fluid (dielectric constant: 78.4, screening length: 5.74355 Bohr) occupying 0.596683 of unit cell:	Completed after 3 iterations at t[s]:    124.28
	FillingsUpdate:  mu: -0.205200000  nElectrons: 79.990143
	SubspaceRotationAdjust: set factor to 0.0319
ElecMinimize: Iter:  29  G: -428.735265699207275  |grad|_K:  7.692e-08  alpha:  4.774e-01  linmin:  3.037e-04  t[s]:    125.48
	Linear fluid (dielectric constant: 78.4, screening length: 5.74355 Bohr) occupying 0.596680 of unit cell:	Completed after 2 iterations at t[s]:    126.54
	Linear fluid (dielectric constant: 78.4, screening length: 5.74355 Bohr) occupying 0.596680 of unit cell:	Completed after 0 iterations at t[s]:    127.48
	FillingsUpdate:  mu: -0.205200000  nElectrons: 79.990150
	SubspaceRotationAdjust: set factor to 0.0419
ElecMinimize: Iter:  30  G: -428.735265710280771  |grad|_K:  6.151e-08  alpha:  4.553e-01  linmin:  2.205e-04  t[s]:    128.75
	Linear fluid (dielectric constant: 78.4, screening length: 5.74355 Bohr) occupying 0.596677 of unit cell:	Completed after 2 iterations at t[s]:    129.81
	Linear fluid (dielectric constant: 78.4, screening length: 5.74355 Bohr) occupying 0.596677 of unit cell:	Completed after 0 iterations at t[s]:    130.76
	FillingsUpdate:  mu: -0.205200000  nElectrons: 79.990176
	SubspaceRotationAdjust: set factor to 0.0558
ElecMinimize: Iter:  31  G: -428.735265717505740  |grad|_K:  5.134e-08  alpha:  4.581e-01  linmin:  7.902e-05  t[s]:    132.07
	Linear fluid (dielectric constant: 78.4, screening length: 5.74355 Bohr) occupying 0.596675 of unit cell:	Completed after 2 iterations at t[s]:    133.14
	Linear fluid (dielectric constant: 78.4, screening length: 5.74355 Bohr) occupying 0.596675 of unit cell:	Completed after 0 iterations at t[s]:    134.09
	FillingsUpdate:  mu: -0.205200000  nElectrons: 79.990177
	SubspaceRotationAdjust: set factor to 0.0681
ElecMinimize: Iter:  32  G: -428.735265723055704  |grad|_K:  5.014e-08  alpha:  5.005e-01  linmin: -2.987e-04  t[s]:    135.40
ElecMinimize: Converged (|Delta G|<1.000000e-08 for 2 iters).
Setting wave functions to eigenvectors of Hamiltonian

# Ionic positions in lattice coordinates:
ion Pt   0.333333333333333  -0.333333333333333  -0.237676000000000 1
ion Pt  -0.333333333333333   0.333333333333333  -0.118838000000000 1
ion Pt   0.000000000000000   0.000000000000000   0.000000000000000 1
ion Pt   0.333333333333333  -0.333333333333333   0.118838000000000 1
ion Pt  -0.333333333333333   0.333333333333333   0.237676000000000 1


# Forces in Lattice coordinates:
force Pt   0.000000000000000  -0.000000000000000  -0.030213881270603 1
force Pt  -0.000000000000000  -0.000000000000000   0.077534071204931 1
force Pt   0.000000000000000   0.000000000000000  -0.000000000000000 1
force Pt   0.000000000000000  -0.000000000000000  -0.077534071204931 1
force Pt  -0.000000000000000  -0.000000000000000   0.030213881270603 1

# Energy components:
   A_diel =        0.0010139335647271
   Eewald =     4702.9680318706023172
       EH =     5101.9459813730409223
     Eloc =   -10326.8371710687824816
      Enl =       -5.2797181899777428
      Exc =     -141.5570699192826680
 Exc_core =       81.2082896017070937
       KE =      142.4579084677132528
  MuShift =        0.0004554796208746
-------------------------------------
     Etot =     -445.0922784517929927
       TS =        0.0569715704775878
-------------------------------------
        F =     -445.1492500222705644
      muN =      -16.4139842992148601
-------------------------------------
        G =     -428.7352657230557043

IonicMinimize: Iter:   0  G: -428.735265723055704  |grad|_K:  8.440e-04  t[s]:    135.87
IonicMinimize: None of the convergence criteria satisfied after 0 iterations.

#--- Lowdin population analysis ---
# oxidation-state Pt +0.014 +0.012 +0.014 +0.012 +0.014


Dumping 'common.fillings' ... done
Dumping 'common.wfns' ... done
Dumping 'common.fluidState' ... done
Dumping 'common.eigenvals' ... done
Dumping 'common.nbound' ... done
End date and time: Tue Mar 19 06:31:39 2019  (Duration: 0-0:02:16.08)
Done!
