
*************** JDFTx 1.4.2  ***************

Start date and time: Tue Mar 19 06:16:05 2019
Executable jdftx with command-line: -i Charged.in
Running on hosts (process indices):  Juans-MBP.lan1 (0-3)
Divided in process groups (process indices):  0 (0)  1 (1)  2 (2)  3 (3)
Resource initialization completed at t[s]:      0.00
Run totals: 4 processes, 12 threads, 0 GPUs


Input parsed successfully to the following command list (including defaults):

basis kpoint-dependent
coords-type Lattice
core-overlap-check vector
coulomb-interaction Slab 001
coulomb-truncation-embed 0 0 0
davidson-band-ratio 1.1
dump End State BoundCharge
dump-name common.$VAR
elec-cutoff 20 100
elec-eigen-algo Davidson
elec-ex-corr gga-PBEsol
elec-smearing Fermi 0.01
electronic-minimize  \
	dirUpdateScheme      FletcherReeves \
	linminMethod         DirUpdateRecommended \
	nIterations          200 \
	history              15 \
	knormThreshold       0 \
	energyDiffThreshold  1e-08 \
	nEnergyDiff          2 \
	alphaTstart          1 \
	alphaTmin            1e-10 \
	updateTestStepSize   yes \
	alphaTreduceFactor   0.1 \
	alphaTincreaseFactor 3 \
	nAlphaAdjustMax      3 \
	wolfeEnergy          0.0001 \
	wolfeGradient        0.9 \
	fdTest               no
exchange-regularization WignerSeitzTruncated
fluid LinearPCM 298.000000 1.013250
fluid-anion F- 1 MeanFieldLJ \
	epsBulk 1 \
	pMol 0 \
	epsInf 1 \
	Pvap 0 \
	sigmaBulk 0 \
	Rvdw 2.24877 \
	Res 0
fluid-cation Na+ 1 MeanFieldLJ \
	epsBulk 1 \
	pMol 0 \
	epsInf 1 \
	Pvap 0 \
	sigmaBulk 0 \
	Rvdw 2.19208 \
	Res 0
fluid-ex-corr lda-TF lda-PZ
fluid-gummel-loop 10 1.000000e-05
fluid-minimize  \
	dirUpdateScheme      PolakRibiere \
	linminMethod         DirUpdateRecommended \
	nIterations          400 \
	history              15 \
	knormThreshold       1e-11 \
	energyDiffThreshold  0 \
	nEnergyDiff          2 \
	alphaTstart          1 \
	alphaTmin            1e-10 \
	updateTestStepSize   yes \
	alphaTreduceFactor   0.1 \
	alphaTincreaseFactor 3 \
	nAlphaAdjustMax      6 \
	wolfeEnergy          0.0001 \
	wolfeGradient        0.9 \
	fdTest               no
fluid-solvent H2O 55.338 ScalarEOS \
	epsBulk 78.4 \
	pMol 0.92466 \
	epsInf 1.77 \
	Pvap 1.06736e-10 \
	sigmaBulk 4.62e-05 \
	Rvdw 2.61727 \
	Res 1.42
forces-output-coords Positions
initial-state common.$VAR
ion Pt   0.333333000000000  -0.333333000000000  -0.237676000000000 1
ion Pt  -0.333333000000000   0.333333000000000  -0.118838000000000 1
ion Pt   0.000000000000000   0.000000000000000   0.000000000000000 1
ion Pt   0.333333000000000  -0.333333000000000   0.118838000000000 1
ion Pt  -0.333333000000000   0.333333000000000   0.237676000000000 1
ion-species GBRV/$ID_pbesol.uspp
ion-width Ecut
ionic-minimize  \
	dirUpdateScheme      L-BFGS \
	linminMethod         DirUpdateRecommended \
	nIterations          0 \
	history              15 \
	knormThreshold       0.0001 \
	energyDiffThreshold  1e-06 \
	nEnergyDiff          2 \
	alphaTstart          1 \
	alphaTmin            1e-10 \
	updateTestStepSize   yes \
	alphaTreduceFactor   0.1 \
	alphaTincreaseFactor 3 \
	nAlphaAdjustMax      3 \
	wolfeEnergy          0.0001 \
	wolfeGradient        0.9 \
	fdTest               no
kpoint   0.000000000000   0.000000000000   0.000000000000  1.00000000000000
kpoint-folding 12 12 1 
latt-move-scale 1 1 1
latt-scale 1 1 1 
lattice Hexagonal 5.23966 36
lattice-minimize  \
	dirUpdateScheme      L-BFGS \
	linminMethod         DirUpdateRecommended \
	nIterations          0 \
	history              15 \
	knormThreshold       0 \
	energyDiffThreshold  1e-06 \
	nEnergyDiff          2 \
	alphaTstart          1 \
	alphaTmin            1e-10 \
	updateTestStepSize   yes \
	alphaTreduceFactor   0.1 \
	alphaTincreaseFactor 3 \
	nAlphaAdjustMax      3 \
	wolfeEnergy          0.0001 \
	wolfeGradient        0.9 \
	fdTest               no
lcao-params -1 1e-06 0.01
pcm-variant CANDLE
spintype no-spin
subspace-rotation-factor 1 yes
symmetries automatic
symmetry-threshold 0.0001
target-mu -0.2272 no




---------- Setting up symmetries ----------

Found 24 point-group symmetries of the bravais lattice
Found 12 space-group symmetries with basis
Applied RMS atom displacement 2.70575e-06 bohrs to make symmetries exact.

---------- Initializing the Grid ----------
R = 
[    5.23966   -2.61983          0  ]
[          0    4.53768          0  ]
[          0          0         36  ]
unit cell volume = 855.932
G =
[    1.19916   0.692335         -0  ]
[          0    1.38467          0  ]
[          0         -0   0.174533  ]
Minimum fftbox size, Smin = [  24  24  164  ]
Chosen fftbox size, S = [  24  24  168  ]

---------- Initializing tighter grid for wavefunction operations ----------
R = 
[    5.23966   -2.61983          0  ]
[          0    4.53768          0  ]
[          0          0         36  ]
unit cell volume = 855.932
G =
[    1.19916   0.692335         -0  ]
[          0    1.38467          0  ]
[          0         -0   0.174533  ]
Minimum fftbox size, Smin = [  24  24  148  ]
Chosen fftbox size, S = [  24  24  150  ]

---------- Exchange Correlation functional ----------
Initalized PBEsol GGA exchange.
Initalized PBEsol GGA correlation.

---------- Setting up pseudopotentials ----------
Width of ionic core gaussian charges (only for fluid interactions / plotting) set to 0.397384

Reading pseudopotential file '/Users/juanmendezvalderrama/Documents/JDFTX/build/pseudopotentials/GBRV/pt_pbesol.uspp':
  Title: Pt.  Created by USPP 7.3.6 on 22-9-15
  Reference state energy: -104.899005.  16 valence electrons in orbitals:
    |510>  occupation: 6  eigenvalue: -2.158847
    |520>  occupation: 9.5  eigenvalue: -0.336311
    |600>  occupation: 0  eigenvalue: -0.320324
    |610>  occupation: 0  eigenvalue: -0.119800
  lMax: 2  lLocal: 3  QijEcut: 5.5
  6 projectors sampled on a log grid with 745 points:
    l: 0  eig: -0.320324  rCut: 2.45
    l: 0  eig: 1.500000  rCut: 2.45
    l: 1  eig: -2.158847  rCut: 1.6
    l: 1  eig: -0.119800  rCut: 1.6
    l: 2  eig: -0.500000  rCut: 1.6
    l: 2  eig: -0.336311  rCut: 1.6
  Partial core density with radius 1.1
  Transforming core density to a uniform radial grid of dG=0.02 with 1620 points.
  Transforming local potential to a uniform radial grid of dG=0.02 with 1620 points.
  Transforming nonlocal projectors to a uniform radial grid of dG=0.02 with 432 points.
  Transforming density augmentations to a uniform radial grid of dG=0.02 with 1620 points.
  Transforming atomic orbitals to a uniform radial grid of dG=0.02 with 432 points.
  Core radius for overlap checks: 2.45 bohrs.

Initialized 1 species with 5 total atoms.

Folded 1 k-points by 12x12x1 to 144 k-points.

---------- Setting up k-points, bands, fillings ----------
Reduced to 19 k-points under symmetry. 
Computing the number of bands and number of electrons
Reading initial fillings from file common.fillings.
nElectrons:  79.920466   nBands: 60   nStates: 19

----- Setting up reduced wavefunction bases (one per k-point) -----
average nbasis = 3657.132 , ideal nbasis = 3656.607

---------- Setting up coulomb interaction ----------
Fluid mode embedding: using embedded box, but periodic Coulomb kernel.
(Fluid response is responsible for (approximate) separation between periodic images.)
Setting up double-sized grid for truncated Coulomb potentials:
R = 
[    5.23966   -2.61983          0  ]
[          0    4.53768          0  ]
[          0          0         72  ]
unit cell volume = 1711.86
G =
[    1.19916   0.692335         -0  ]
[          0    1.38467          0  ]
[          0         -0  0.0872665  ]
Chosen fftbox size, S = [  24  24  336  ]
Integer grid location selected as the embedding center:
   Grid: [  0  0  0  ]
   Lattice: [  0  0  0  ]
   Cartesian: [  0  0  0  ]
Constructing Wigner-Seitz cell: 8 faces (6 quadrilaterals, 2 hexagons)
Range-separation parameter for embedded mesh potentials due to point charges: 0.589462 bohrs.

Initializing van der Waals corrections
	NOTE: vdW corrections apply only for interactions with fluid.
	Pt:  C6:  815.23 Eh-a0^6  R0: 3.326 a0 (WARNING: beyond Grimme's data set)

---------- Setting up ewald sum ----------
Optimum gaussian width for ewald sums = 3.649540 bohr.
Real space sum over 1805 unit cells with max indices [  9  9  2  ]
Reciprocal space sum over 5103 terms with max indices [  4  4  31  ]

---------- Allocating electronic variables ----------
Initializing wave functions:  reading from 'common.wfns'
----- createFluidSolver() ----- (Fluid-side solver setup)
   Initializing fluid molecule 'H2O'
     Initializing site 'O'
       Electron density: proportional to exp(-r/0.36935)*erfc((r-0.51523)/0.36823) with norm 6.826
       Charge density: gaussian nuclear width 0.478731 with net site charge 0.826
       Polarizability: cuspless exponential with width 0.32 and norm 3.73
       Hard sphere radius: 2.57003 bohrs
       Positions in reference frame:
         [ +0.000000 +0.000000 +0.000000 ]
     Initializing site 'H'
       Electron density: proportional to exp(-r/0.34641)*erfc((r-0)/0.390882) with norm 0.587
       Charge density: gaussian nuclear width 0.377945 with net site charge -0.413
       Polarizability: cuspless exponential with width 0.39 and norm 3.3
       Positions in reference frame:
         [ +0.000000 -1.441945 +1.122523 ]
         [ +0.000000 +1.441945 +1.122523 ]
     Net charge: 0   dipole magnitude: 0.927204
     Initializing spherical shell mfKernel with radius 2.61727 Bohr
     deltaS corrections:
       site 'O': -7.54299
       site 'H': -6.83917
   Initializing fluid molecule 'Na+'
     Initializing site 'Na'
       Electron density: proportional to exp(-r/0.19682)*erfc((r-0.71491)/0.41314) with norm 8.1383
       Charge density: gaussian nuclear width 0.365347 with net site charge -1
       Hard sphere radius: 1.86327 bohrs
       Positions in reference frame:
         [ +0.000000 +0.000000 +0.000000 ]
     Net charge: -1   dipole magnitude: 0
     Initializing gaussian mfKernel with width: 1.55004 Bohr
     deltaS corrections:
       site 'Na': -22.3555
   Initializing fluid molecule 'F-'
     Initializing site 'F'
       Electron density: proportional to exp(-r/0.38886)*erfc((r-0)/0.438782) with norm 8
       Charge density: gaussian nuclear width 0.374796 with net site charge 1
       Hard sphere radius: 2.39995 bohrs
       Positions in reference frame:
         [ +0.000000 +0.000000 +0.000000 ]
     Net charge: 1   dipole magnitude: 0
     Initializing gaussian mfKernel with width: 1.59012 Bohr
     deltaS corrections:
       site 'F': -9.04335

Correction to mu due to finite nuclear width = -0.0463682
   Cavity determined by nc: 0.00142 and sigma: 0.707107
   Nonlocal vdW cavity from gaussian model electron density with norm = 8 and sigma = 0.993594 bohr
   Charge asymmetry in cavity with sensitivity pCavity = 36.5 e-bohr/Eh
   Electrostatic cavity expanded by eta = 1.46 bohrs
   Weighted density cavitation model constrained by Nbulk: 0.0049383 bohr^-3, Pvap: 3.14029 kPa, Rvdw: 2.61727 bohr and sigmaBulk: 4.62e-05 Eh/bohr^2 at T: 298 K.
   Weighted density dispersion model using vdW pair potentials with single solvent site with sqrtC6eff: 0.77 SI.
Reading fluid state from 'common.fluidState'


---- Citations for features of the code used in this run ----

   Software package:
      R. Sundararaman, K. Letchworth-Weaver, K.A. Schwarz, D. Gunceler, Y. Ozhabes and T.A. Arias, 'JDFTx: software for joint density-functional theory', SoftwareX 6, 278 (2017)

   gga-PBEsol exchange-correlation functional:
      J.P. Perdew et al., Phys. Rev. Lett. 100, 136406 (2008)

   Pseudopotentials:
      KF Garrity, JW Bennett, KM Rabe and D Vanderbilt, Comput. Mater. Sci. 81, 446 (2014)

   Truncated Coulomb potentials:
      R. Sundararaman and T.A. Arias, Phys. Rev. B 87, 165122 (2013)

   Van der Waals correction pair-potentials:
      S. Grimme, J. Comput. Chem. 27, 1787 (2006)

   Charge-asymmetric nonlocally-determined local-electric (CANDLE) solvation model:
      R. Sundararaman and W.A. Goddard III, J. Chem. Phys. 142, 064107 (2015)

   Total energy minimization with Auxiliary Hamiltonian:
      C. Freysoldt, S. Boeck, and J. Neugebauer, Phys. Rev. B 79, 241103(R) (2009)

   Grand-canonical (fixed-potential) DFT:
      R. Sundararaman, W. A. Goddard III and T. A. Arias, J. Chem. Phys. 146, 114104 (2017)

This list may not be complete. Please suggest additional citations or
report any other bugs at https://github.com/shankar1729/jdftx/issues

Initialization completed successfully at t[s]:      3.37

Shifting auxilliary hamiltonian by 0.003735 to set nElectrons=79.920466
	Linear fluid (dielectric constant: 78.4, screening length: 5.74355 Bohr) occupying 0.600420 of unit cell:	Completed after 12 iterations at t[s]:      5.37

-------- Electronic minimization -----------
	Linear fluid (dielectric constant: 78.4, screening length: 5.74355 Bohr) occupying 0.600420 of unit cell:	Completed after 0 iterations at t[s]:      6.21
	FillingsUpdate:  mu: -0.227200000  nElectrons: 79.920466
ElecMinimize: Iter:   0  G: -426.976102949583947  |grad|_K:  1.104e-05  alpha:  1.000e+00
	Linear fluid (dielectric constant: 78.4, screening length: 5.74355 Bohr) occupying 0.640553 of unit cell:	Completed after 36 iterations at t[s]:     10.13
	Linear fluid (dielectric constant: 78.4, screening length: 5.74355 Bohr) occupying 0.600416 of unit cell:	Completed after 24 iterations at t[s]:     12.06
	FillingsUpdate:  mu: -0.227200000  nElectrons: 79.923658
	SubspaceRotationAdjust: set factor to 0.507
ElecMinimize: Iter:   1  G: -426.976106038764897  |grad|_K:  1.283e-05  alpha:  8.636e-03  linmin:  5.128e-02  t[s]:     13.49
	Linear fluid (dielectric constant: 78.4, screening length: 5.74355 Bohr) occupying 0.600407 of unit cell:	Completed after 13 iterations at t[s]:     15.06
	Linear fluid (dielectric constant: 78.4, screening length: 5.74355 Bohr) occupying 0.600400 of unit cell:	Completed after 13 iterations at t[s]:     16.59
	FillingsUpdate:  mu: -0.227200000  nElectrons: 79.925829
	SubspaceRotationAdjust: set factor to 0.264
ElecMinimize: Iter:   2  G: -426.976113505668536  |grad|_K:  5.440e-06  alpha:  1.543e-02  linmin:  1.297e-05  t[s]:     18.01
	Linear fluid (dielectric constant: 78.4, screening length: 5.74355 Bohr) occupying 0.600394 of unit cell:	Completed after 12 iterations at t[s]:     19.57
	Linear fluid (dielectric constant: 78.4, screening length: 5.74355 Bohr) occupying 0.600397 of unit cell:	Completed after 11 iterations at t[s]:     21.01
	FillingsUpdate:  mu: -0.227200000  nElectrons: 79.925071
	SubspaceRotationAdjust: set factor to 0.211
ElecMinimize: Iter:   3  G: -426.976114341920777  |grad|_K:  1.413e-06  alpha:  6.697e-03  linmin: -9.925e-05  t[s]:     22.41
	Linear fluid (dielectric constant: 78.4, screening length: 5.74355 Bohr) occupying 0.600396 of unit cell:	Completed after 7 iterations at t[s]:     23.76
ElecMinimize: 	Predicted alpha/alphaT>3.000000, increasing alphaT to 2.009210e-02.
	Linear fluid (dielectric constant: 78.4, screening length: 5.74355 Bohr) occupying 0.600395 of unit cell:	Completed after 9 iterations at t[s]:     25.13
ElecMinimize: 	Predicted alpha/alphaT>3.000000, increasing alphaT to 6.027630e-02.
	Linear fluid (dielectric constant: 78.4, screening length: 5.74355 Bohr) occupying 0.600389 of unit cell:	Completed after 10 iterations at t[s]:     26.52
	Linear fluid (dielectric constant: 78.4, screening length: 5.74355 Bohr) occupying 0.600386 of unit cell:	Completed after 10 iterations at t[s]:     27.94
	FillingsUpdate:  mu: -0.227200000  nElectrons: 79.924392
	SubspaceRotationAdjust: set factor to 0.109
	SubspaceRotationAdjust: resetting CG because factor has changed by 0.108637
	Linear fluid (dielectric constant: 78.4, screening length: 5.74355 Bohr) occupying 0.600386 of unit cell:	Completed after 0 iterations at t[s]:     29.95
ElecMinimize: 	State modified externally: resetting search direction.
ElecMinimize: Iter:   4  G: -426.976115081321097  |grad|_K:  2.237e-06  alpha:  8.795e-02
	Linear fluid (dielectric constant: 78.4, screening length: 5.74355 Bohr) occupying 0.600382 of unit cell:	Completed after 12 iterations at t[s]:     32.85
	Linear fluid (dielectric constant: 78.4, screening length: 5.74355 Bohr) occupying 0.600384 of unit cell:	Completed after 12 iterations at t[s]:     34.37
	FillingsUpdate:  mu: -0.227200000  nElectrons: 79.925343
	SubspaceRotationAdjust: set factor to 0.107
ElecMinimize: Iter:   5  G: -426.976115845100765  |grad|_K:  8.551e-07  alpha:  3.639e-02  linmin:  1.449e-04  t[s]:     35.77
	Linear fluid (dielectric constant: 78.4, screening length: 5.74355 Bohr) occupying 0.600383 of unit cell:	Completed after 2 iterations at t[s]:     36.98
ElecMinimize: 	Predicted alpha/alphaT>3.000000, increasing alphaT to 1.091578e-01.
	Linear fluid (dielectric constant: 78.4, screening length: 5.74355 Bohr) occupying 0.600380 of unit cell:	Completed after 2 iterations at t[s]:     38.14
ElecMinimize: 	Predicted alpha/alphaT>3.000000, increasing alphaT to 3.274734e-01.
	Linear fluid (dielectric constant: 78.4, screening length: 5.74355 Bohr) occupying 0.600371 of unit cell:	Completed after 8 iterations at t[s]:     39.46
	Linear fluid (dielectric constant: 78.4, screening length: 5.74355 Bohr) occupying 0.600361 of unit cell:	Completed after 9 iterations at t[s]:     40.91
	FillingsUpdate:  mu: -0.227200000  nElectrons: 79.925720
	SubspaceRotationAdjust: set factor to 0.0999
ElecMinimize: Iter:   6  G: -426.976117560038915  |grad|_K:  8.040e-07  alpha:  5.586e-01  linmin:  7.022e-05  t[s]:     42.42
	Linear fluid (dielectric constant: 78.4, screening length: 5.74355 Bohr) occupying 0.600316 of unit cell:	Completed after 13 iterations at t[s]:     44.07
	Linear fluid (dielectric constant: 78.4, screening length: 5.74355 Bohr) occupying 0.600301 of unit cell:	Completed after 10 iterations at t[s]:     45.61
	FillingsUpdate:  mu: -0.227200000  nElectrons: 79.927780
	SubspaceRotationAdjust: set factor to 0.11
ElecMinimize: Iter:   7  G: -426.976119573446169  |grad|_K:  7.488e-07  alpha:  7.412e-01  linmin: -6.143e-05  t[s]:     47.05
	Linear fluid (dielectric constant: 78.4, screening length: 5.74355 Bohr) occupying 0.600214 of unit cell:	Completed after 11 iterations at t[s]:     48.59
	Linear fluid (dielectric constant: 78.4, screening length: 5.74355 Bohr) occupying 0.600256 of unit cell:	Completed after 11 iterations at t[s]:     50.09
	FillingsUpdate:  mu: -0.227200000  nElectrons: 79.927560
	SubspaceRotationAdjust: set factor to 0.0629
ElecMinimize: Iter:   8  G: -426.976120486395530  |grad|_K:  1.882e-06  alpha:  3.852e-01  linmin:  2.216e-06  t[s]:     51.58
	Linear fluid (dielectric constant: 78.4, screening length: 5.74355 Bohr) occupying 0.599951 of unit cell:	Completed after 14 iterations at t[s]:     53.23
	Linear fluid (dielectric constant: 78.4, screening length: 5.74355 Bohr) occupying 0.600194 of unit cell:	Completed after 14 iterations at t[s]:     54.84
	FillingsUpdate:  mu: -0.227200000  nElectrons: 79.928962
	SubspaceRotationAdjust: set factor to 0.0445
ElecMinimize: Iter:   9  G: -426.976121662848186  |grad|_K:  7.855e-07  alpha:  7.892e-02  linmin: -2.493e-05  t[s]:     56.33
	Linear fluid (dielectric constant: 78.4, screening length: 5.74355 Bohr) occupying 0.600181 of unit cell:	Completed after 2 iterations at t[s]:     57.59
ElecMinimize: 	Predicted alpha/alphaT>3.000000, increasing alphaT to 2.367512e-01.
	Linear fluid (dielectric constant: 78.4, screening length: 5.74355 Bohr) occupying 0.600155 of unit cell:	Completed after 9 iterations at t[s]:     59.03
	Linear fluid (dielectric constant: 78.4, screening length: 5.74355 Bohr) occupying 0.600094 of unit cell:	Completed after 11 iterations at t[s]:     60.53
	FillingsUpdate:  mu: -0.227200000  nElectrons: 79.929885
	SubspaceRotationAdjust: set factor to 0.049
ElecMinimize: Iter:  10  G: -426.976123268303297  |grad|_K:  8.401e-07  alpha:  6.188e-01  linmin:  2.363e-05  t[s]:     62.04
	Linear fluid (dielectric constant: 78.4, screening length: 5.74355 Bohr) occupying 0.599977 of unit cell:	Completed after 13 iterations at t[s]:     63.68
	Linear fluid (dielectric constant: 78.4, screening length: 5.74355 Bohr) occupying 0.600064 of unit cell:	Completed after 11 iterations at t[s]:     65.20
	FillingsUpdate:  mu: -0.227200000  nElectrons: 79.929460
	SubspaceRotationAdjust: set factor to 0.0325
ElecMinimize: Iter:  11  G: -426.976123733424743  |grad|_K:  7.747e-07  alpha:  1.571e-01  linmin: -5.992e-07  t[s]:     66.69
	Linear fluid (dielectric constant: 78.4, screening length: 5.74355 Bohr) occupying 0.600038 of unit cell:	Completed after 10 iterations at t[s]:     68.22
	Linear fluid (dielectric constant: 78.4, screening length: 5.74355 Bohr) occupying 0.600011 of unit cell:	Completed after 9 iterations at t[s]:     69.70
	FillingsUpdate:  mu: -0.227200000  nElectrons: 79.930176
	SubspaceRotationAdjust: set factor to 0.0293
ElecMinimize: Iter:  12  G: -426.976124552079341  |grad|_K:  3.996e-07  alpha:  3.248e-01  linmin:  3.396e-05  t[s]:     71.17
	Linear fluid (dielectric constant: 78.4, screening length: 5.74355 Bohr) occupying 0.599998 of unit cell:	Completed after 2 iterations at t[s]:     72.45
	Linear fluid (dielectric constant: 78.4, screening length: 5.74355 Bohr) occupying 0.599991 of unit cell:	Completed after 3 iterations at t[s]:     73.71
	FillingsUpdate:  mu: -0.227200000  nElectrons: 79.930359
	SubspaceRotationAdjust: set factor to 0.0328
ElecMinimize: Iter:  13  G: -426.976124905492100  |grad|_K:  2.300e-07  alpha:  5.275e-01  linmin:  1.283e-05  t[s]:     75.20
	Linear fluid (dielectric constant: 78.4, screening length: 5.74355 Bohr) occupying 0.599986 of unit cell:	Completed after 8 iterations at t[s]:     76.62
	Linear fluid (dielectric constant: 78.4, screening length: 5.74355 Bohr) occupying 0.599986 of unit cell:	Completed after 0 iterations at t[s]:     77.74
	FillingsUpdate:  mu: -0.227200000  nElectrons: 79.930321
	SubspaceRotationAdjust: set factor to 0.0302
ElecMinimize: Iter:  14  G: -426.976125017466870  |grad|_K:  1.837e-07  alpha:  5.034e-01  linmin:  3.671e-04  t[s]:     79.20
	Linear fluid (dielectric constant: 78.4, screening length: 5.74355 Bohr) occupying 0.599983 of unit cell:	Completed after 10 iterations at t[s]:     80.73
	Linear fluid (dielectric constant: 78.4, screening length: 5.74355 Bohr) occupying 0.599985 of unit cell:	Completed after 10 iterations at t[s]:     82.21
	FillingsUpdate:  mu: -0.227200000  nElectrons: 79.930493
	SubspaceRotationAdjust: set factor to 0.0216
ElecMinimize: Iter:  15  G: -426.976125048977224  |grad|_K:  1.651e-07  alpha:  2.297e-01  linmin:  1.412e-04  t[s]:     83.69
	Linear fluid (dielectric constant: 78.4, screening length: 5.74355 Bohr) occupying 0.599983 of unit cell:	Completed after 6 iterations at t[s]:     85.07
	Linear fluid (dielectric constant: 78.4, screening length: 5.74355 Bohr) occupying 0.599982 of unit cell:	Completed after 6 iterations at t[s]:     86.45
	FillingsUpdate:  mu: -0.227200000  nElectrons: 79.930441
	SubspaceRotationAdjust: set factor to 0.0262
ElecMinimize: Iter:  16  G: -426.976125092138602  |grad|_K:  1.165e-07  alpha:  3.816e-01  linmin:  5.154e-04  t[s]:     87.92
	Linear fluid (dielectric constant: 78.4, screening length: 5.74355 Bohr) occupying 0.599980 of unit cell:	Completed after 2 iterations at t[s]:     89.17
	Linear fluid (dielectric constant: 78.4, screening length: 5.74355 Bohr) occupying 0.599977 of unit cell:	Completed after 6 iterations at t[s]:     90.52
	FillingsUpdate:  mu: -0.227200000  nElectrons: 79.930409
	SubspaceRotationAdjust: set factor to 0.0299
ElecMinimize: Iter:  17  G: -426.976125133074390  |grad|_K:  1.415e-07  alpha:  7.446e-01  linmin:  5.899e-04  t[s]:     91.98
	Linear fluid (dielectric constant: 78.4, screening length: 5.74355 Bohr) occupying 0.599966 of unit cell:	Completed after 8 iterations at t[s]:     93.47
	Linear fluid (dielectric constant: 78.4, screening length: 5.74355 Bohr) occupying 0.599971 of unit cell:	Completed after 10 iterations at t[s]:     95.01
	FillingsUpdate:  mu: -0.227200000  nElectrons: 79.930573
	SubspaceRotationAdjust: set factor to 0.0247
ElecMinimize: Iter:  18  G: -426.976125168605222  |grad|_K:  1.884e-07  alpha:  4.321e-01  linmin:  1.876e-05  t[s]:     96.52
	Linear fluid (dielectric constant: 78.4, screening length: 5.74355 Bohr) occupying 0.599958 of unit cell:	Completed after 8 iterations at t[s]:     98.01
	Linear fluid (dielectric constant: 78.4, screening length: 5.74355 Bohr) occupying 0.599958 of unit cell:	Completed after 0 iterations at t[s]:     99.13
	FillingsUpdate:  mu: -0.227200000  nElectrons: 79.930483
	SubspaceRotationAdjust: set factor to 0.0207
ElecMinimize: Iter:  19  G: -426.976125231775029  |grad|_K:  1.686e-07  alpha:  4.241e-01  linmin:  1.111e-04  t[s]:    100.63
	Linear fluid (dielectric constant: 78.4, screening length: 5.74355 Bohr) occupying 0.599947 of unit cell:	Completed after 2 iterations at t[s]:    101.94
	Linear fluid (dielectric constant: 78.4, screening length: 5.74355 Bohr) occupying 0.599937 of unit cell:	Completed after 2 iterations at t[s]:    103.19
	FillingsUpdate:  mu: -0.227200000  nElectrons: 79.930584
	SubspaceRotationAdjust: set factor to 0.0225
ElecMinimize: Iter:  20  G: -426.976125326825979  |grad|_K:  1.630e-07  alpha:  8.010e-01  linmin: -4.792e-05  t[s]:    104.71
	Linear fluid (dielectric constant: 78.4, screening length: 5.74355 Bohr) occupying 0.599917 of unit cell:	Completed after 10 iterations at t[s]:    106.26
	Linear fluid (dielectric constant: 78.4, screening length: 5.74355 Bohr) occupying 0.599923 of unit cell:	Completed after 2 iterations at t[s]:    107.50
	FillingsUpdate:  mu: -0.227200000  nElectrons: 79.930707
	SubspaceRotationAdjust: set factor to 0.02
ElecMinimize: Iter:  21  G: -426.976125390356515  |grad|_K:  1.699e-07  alpha:  5.708e-01  linmin:  7.013e-05  t[s]:    108.98
	Linear fluid (dielectric constant: 78.4, screening length: 5.74355 Bohr) occupying 0.599908 of unit cell:	Completed after 9 iterations at t[s]:    110.51
	Linear fluid (dielectric constant: 78.4, screening length: 5.74355 Bohr) occupying 0.599917 of unit cell:	Completed after 9 iterations at t[s]:    111.98
	FillingsUpdate:  mu: -0.227200000  nElectrons: 79.930601
	SubspaceRotationAdjust: set factor to 0.0138
	SubspaceRotationAdjust: resetting CG because factor has changed by 0.127255
	Linear fluid (dielectric constant: 78.4, screening length: 5.74355 Bohr) occupying 0.599917 of unit cell:	Completed after 0 iterations at t[s]:    114.13
ElecMinimize: 	State modified externally: resetting search direction.
ElecMinimize: Iter:  22  G: -426.976125417676201  |grad|_K:  1.215e-07  alpha:  2.480e-01
	Linear fluid (dielectric constant: 78.4, screening length: 5.74355 Bohr) occupying 0.599917 of unit cell:	Completed after 8 iterations at t[s]:    117.11
	Linear fluid (dielectric constant: 78.4, screening length: 5.74355 Bohr) occupying 0.599917 of unit cell:	Completed after 0 iterations at t[s]:    118.21
	FillingsUpdate:  mu: -0.227200000  nElectrons: 79.930670
	SubspaceRotationAdjust: set factor to 0.0201
ElecMinimize: Iter:  23  G: -426.976125435180450  |grad|_K:  5.885e-08  alpha:  2.819e-01  linmin: -1.419e-02  t[s]:    119.74
	Linear fluid (dielectric constant: 78.4, screening length: 5.74355 Bohr) occupying 0.599917 of unit cell:	Completed after 1 iterations at t[s]:    121.00
	Linear fluid (dielectric constant: 78.4, screening length: 5.74355 Bohr) occupying 0.599917 of unit cell:	Completed after 2 iterations at t[s]:    122.23
	FillingsUpdate:  mu: -0.227200000  nElectrons: 79.930681
	SubspaceRotationAdjust: set factor to 0.0239
ElecMinimize: Iter:  24  G: -426.976125446117862  |grad|_K:  6.006e-08  alpha:  7.484e-01  linmin:  2.262e-03  t[s]:    123.75
	Linear fluid (dielectric constant: 78.4, screening length: 5.74355 Bohr) occupying 0.599917 of unit cell:	Completed after 6 iterations at t[s]:    125.17
	Linear fluid (dielectric constant: 78.4, screening length: 5.74355 Bohr) occupying 0.599917 of unit cell:	Completed after 2 iterations at t[s]:    126.40
	FillingsUpdate:  mu: -0.227200000  nElectrons: 79.930648
	SubspaceRotationAdjust: set factor to 0.0229
ElecMinimize: Iter:  25  G: -426.976125454612202  |grad|_K:  7.663e-08  alpha:  5.915e-01  linmin:  5.328e-04  t[s]:    127.90
	Linear fluid (dielectric constant: 78.4, screening length: 5.74355 Bohr) occupying 0.599916 of unit cell:	Completed after 9 iterations at t[s]:    129.40
	Linear fluid (dielectric constant: 78.4, screening length: 5.74355 Bohr) occupying 0.599916 of unit cell:	Completed after 6 iterations at t[s]:    130.75
	FillingsUpdate:  mu: -0.227200000  nElectrons: 79.930714
	SubspaceRotationAdjust: set factor to 0.0209
ElecMinimize: Iter:  26  G: -426.976125463456356  |grad|_K:  7.504e-08  alpha:  3.711e-01  linmin:  2.198e-04  t[s]:    132.28
ElecMinimize: Converged (|Delta G|<1.000000e-08 for 2 iters).
Setting wave functions to eigenvectors of Hamiltonian

# Ionic positions in lattice coordinates:
ion Pt   0.333333333333333  -0.333333333333333  -0.237676000000000 1
ion Pt  -0.333333333333333   0.333333333333333  -0.118838000000000 1
ion Pt   0.000000000000000   0.000000000000000   0.000000000000000 1
ion Pt   0.333333333333333  -0.333333333333333   0.118838000000000 1
ion Pt  -0.333333333333333   0.333333333333333   0.237676000000000 1


# Forces in Lattice coordinates:
force Pt  -0.000000000000000   0.000000000000000  -0.025419743390121 1
force Pt  -0.000000000000000  -0.000000000000000   0.072309851380020 1
force Pt   0.000000000000000   0.000000000000000   0.000000000000000 1
force Pt   0.000000000000000  -0.000000000000000  -0.072309851380930 1
force Pt   0.000000000000000  -0.000000000000000   0.025419743390121 1

# Energy components:
   A_diel =        0.0141704954434051
   Eewald =     4702.9680318706023172
       EH =     5098.2061222396441735
     Eloc =   -10323.1090786392760492
      Enl =       -5.2814695504788123
      Exc =     -141.5420962714699726
 Exc_core =       81.2082896017070937
       KE =      142.4536689980087942
  MuShift =        0.0032126573307172
-------------------------------------
     Etot =     -445.0791485984887572
       TS =        0.0572351338398609
-------------------------------------
        F =     -445.1363837323286248
      muN =      -18.1602582688722798
-------------------------------------
        G =     -426.9761254634563556

IonicMinimize: Iter:   0  G: -426.976125463456356  |grad|_K:  7.774e-04  t[s]:    132.91
IonicMinimize: None of the convergence criteria satisfied after 0 iterations.

#--- Lowdin population analysis ---
# oxidation-state Pt +0.043 +0.014 +0.014 +0.014 +0.043


Dumping 'common.fillings' ... done
Dumping 'common.wfns' ... done
Dumping 'common.fluidState' ... done
Dumping 'common.eigenvals' ... done
Dumping 'common.nbound' ... done
End date and time: Tue Mar 19 06:18:18 2019  (Duration: 0-0:02:13.21)
Done!
