CRYSTAL
PRIMVEC
  2.772709   0.000000   0.000000
 -1.386354   2.401237   0.000000
  0.000000   0.000000  19.050379
PRIMCOORD
5 1
78   1.386354  -0.800412  -4.527818
78  -1.386354   0.800412  -2.263909
78   0.000000   0.000000   0.000000
78   1.386354  -0.800412   2.263909
78  -1.386354   0.800412   4.527818
BEGIN_BLOCK_DATAGRID_3D
 Charged-0.1648.nbound
 BEGIN_DATAGRID_3D_Charged-0.1648.nbound
  25 25 169
    0.000000   0.000000   0.000000
    2.772709   0.000000   0.000000
   -1.386354   2.401237   0.000000
    0.000000   0.000000  19.050379
  -1.338968e-04 -1.338965e-04 -1.338948e-04 -1.338908e-04 -1.338870e-04 -1.338885e-04 -1.338985e-04 -1.339152e-04 -1.339335e-04 -1.339485e-04 -1.339581e-04 -1.339629e-04 -1.339643e-04 -1.339629e-04 -1.339581e-04 -1.339485e-04 -1.339335e-04 -1.339152e-04 -1.338985e-04 -1.338885e-04 -1.338870e-04 -1.338908e-04 -1.338948e-04 -1.338965e-04 -1.338968e-04
  -1.338965e-04 -1.338965e-04 -1.338955e-04 -1.338924e-04 -1.338882e-04 -1.338871e-04 -1.338932e-04 -1.339074e-04 -1.339255e-04 -1.339424e-04 -1.339544e-04 -1.339612e-04 -1.339641e-04 -1.339641e-04 -1.339612e-04 -1.339544e-04 -1.339424e-04 -1.339255e-04 -1.339074e-04 -1.338932e-04 -1.338871e-04 -1.338882e-04 -1.338924e-04 -1.338955e-04 -1.338965e-04
  -1.338948e-04 -1.338955e-04 -1.338948e-04 -1.338924e-04 -1.338888e-04 -1.338869e-04 -1.338908e-04 -1.339024e-04 -1.339195e-04 -1.339370e-04 -1.339508e-04 -1.339594e-04 -1.339637e-04 -1.339650e-04 -1.339637e-04 -1.339594e-04 -1.339508e-04 -1.339370e-04 -1.339195e-04 -1.339024e-04 -1.338908e-04 -1.338869e-04 -1.338888e-04 -1.338924e-04 -1.338948e-04
  -1.338908e-04 -1.338924e-04 -1.338924e-04 -1.338908e-04 -1.338882e-04 -1.338869e-04 -1.338902e-04 -1.339002e-04 -1.339158e-04 -1.339331e-04 -1.339478e-04 -1.339577e-04 -1.339632e-04 -1.339655e-04 -1.339655e-04 -1.339632e-04 -1.339577e-04 -1.339478e-04 -1.339331e-04 -1.339158e-04 -1.339002e-04 -1.338902e-04 -1.338869e-04 -1.338882e-04 -1.338908e-04
  -1.338871e-04 -1.338882e-04 -1.338888e-04 -1.338882e-04 -1.338871e-04 -1.338871e-04 -1.338908e-04 -1.339002e-04 -1.339146e-04 -1.339311e-04 -1.339458e-04 -1.339564e-04 -1.339627e-04 -1.339657e-04 -1.339666e-04 -1.339657e-04 -1.339627e-04 -1.339564e-04 -1.339458e-04 -1.339311e-04 -1.339146e-04 -1.339002e-04 -1.338908e-04 -1.338871e-04 -1.338871e-04
  -1.338885e-04 -1.338871e-04 -1.338869e-04 -1.338869e-04 -1.338871e-04 -1.338885e-04 -1.338932e-04 -1.339024e-04 -1.339158e-04 -1.339311e-04 -1.339451e-04 -1.339557e-04 -1.339624e-04 -1.339659e-04 -1.339673e-04 -1.339673e-04 -1.339659e-04 -1.339624e-04 -1.339557e-04 -1.339451e-04 -1.339311e-04 -1.339158e-04 -1.339024e-04 -1.338932e-04 -1.338885e-04
  -1.338985e-04 -1.338932e-04 -1.338908e-04 -1.338902e-04 -1.338908e-04 -1.338932e-04 -1.338985e-04 -1.339074e-04 -1.339195e-04 -1.339331e-04 -1.339458e-04 -1.339557e-04 -1.339623e-04 -1.339659e-04 -1.339676e-04 -1.339681e-04 -1.339676e-04 -1.339659e-04 -1.339623e-04 -1.339557e-04 -1.339458e-04 -1.339331e-04 -1.339195e-04 -1.339074e-04 -1.338985e-04
  -1.339152e-04 -1.339074e-04 -1.339024e-04 -1.339002e-04 -1.339002e-04 -1.339024e-04 -1.339074e-04 -1.339152e-04 -1.339255e-04 -1.339370e-04 -1.339478e-04 -1.339564e-04 -1.339624e-04 -1.339659e-04 -1.339677e-04 -1.339685e-04 -1.339685e-04 -1.339677e-04 -1.339659e-04 -1.339624e-04 -1.339564e-04 -1.339478e-04 -1.339370e-04 -1.339255e-04 -1.339152e-04
  -1.339335e-04 -1.339255e-04 -1.339195e-04 -1.339158e-04 -1.339146e-04 -1.339158e-04 -1.339195e-04 -1.339255e-04 -1.339335e-04 -1.339424e-04 -1.339508e-04 -1.339577e-04 -1.339627e-04 -1.339659e-04 -1.339676e-04 -1.339685e-04 -1.339687e-04 -1.339685e-04 -1.339676e-04 -1.339659e-04 -1.339627e-04 -1.339577e-04 -1.339508e-04 -1.339424e-04 -1.339335e-04
  -1.339485e-04 -1.339424e-04 -1.339370e-04 -1.339331e-04 -1.339311e-04 -1.339311e-04 -1.339331e-04 -1.339370e-04 -1.339424e-04 -1.339485e-04 -1.339544e-04 -1.339594e-04 -1.339632e-04 -1.339657e-04 -1.339673e-04 -1.339681e-04 -1.339685e-04 -1.339685e-04 -1.339681e-04 -1.339673e-04 -1.339657e-04 -1.339632e-04 -1.339594e-04 -1.339544e-04 -1.339485e-04
  -1.339581e-04 -1.339544e-04 -1.339508e-04 -1.339478e-04 -1.339458e-04 -1.339451e-04 -1.339458e-04 -1.339478e-04 -1.339508e-04 -1.339544e-04 -1.339581e-04 -1.339612e-04 -1.339637e-04 -1.339655e-04 -1.339666e-04 -1.339673e-04 -1.339676e-04 -1.339677e-04 -1.339676e-04 -1.339673e-04 -1.339666e-04 -1.339655e-04 -1.339637e-04 -1.339612e-04 -1.339581e-04
  -1.339629e-04 -1.339612e-04 -1.339594e-04 -1.339577e-04 -1.339564e-04 -1.339557e-04 -1.339557e-04 -1.339564e-04 -1.339577e-04 -1.339594e-04 -1.339612e-04 -1.339629e-04 -1.339641e-04 -1.339650e-04 -1.339655e-04 -1.339657e-04 -1.339659e-04 -1.339659e-04 -1.339659e-04 -1.339659e-04 -1.339657e-04 -1.339655e-04 -1.339650e-04 -1.339641e-04 -1.339629e-04
  -1.339643e-04 -1.339641e-04 -1.339637e-04 -1.339632e-04 -1.339627e-04 -1.339624e-04 -1.339623e-04 -1.339624e-04 -1.339627e-04 -1.339632e-04 -1.339637e-04 -1.339641e-04 -1.339643e-04 -1.339641e-04 -1.339637e-04 -1.339632e-04 -1.339627e-04 -1.339624e-04 -1.339623e-04 -1.339624e-04 -1.339627e-04 -1.339632e-04 -1.339637e-04 -1.339641e-04 -1.339643e-04
  -1.339629e-04 -1.339641e-04 -1.339650e-04 -1.339655e-04 -1.339657e-04 -1.339659e-04 -1.339659e-04 -1.339659e-04 -1.339659e-04 -1.339657e-04 -1.339655e-04 -1.339650e-04 -1.339641e-04 -1.339629e-04 -1.339612e-04 -1.339594e-04 -1.339577e-04 -1.339564e-04 -1.339557e-04 -1.339557e-04 -1.339564e-04 -1.339577e-04 -1.339594e-04 -1.339612e-04 -1.339629e-04
  -1.339581e-04 -1.339612e-04 -1.339637e-04 -1.339655e-04 -1.339666e-04 -1.339673e-04 -1.339676e-04 -1.339677e-04 -1.339676e-04 -1.339673e-04 -1.339666e-04 -1.339655e-04 -1.339637e-04 -1.339612e-04 -1.339581e-04 -1.339544e-04 -1.339508e-04 -1.339478e-04 -1.339458e-04 -1.339451e-04 -1.339458e-04 -1.339478e-04 -1.339508e-04 -1.339544e-04 -1.339581e-04
  -1.339485e-04 -1.339544e-04 -1.339594e-04 -1.339632e-04 -1.339657e-04 -1.339673e-04 -1.339681e-04 -1.339685e-04 -1.339685e-04 -1.339681e-04 -1.339673e-04 -1.339657e-04 -1.339632e-04 -1.339594e-04 -1.339544e-04 -1.339485e-04 -1.339424e-04 -1.339370e-04 -1.339331e-04 -1.339311e-04 -1.339311e-04 -1.339331e-04 -1.339370e-04 -1.339424e-04 -1.339485e-04
  -1.339335e-04 -1.339424e-04 -1.339508e-04 -1.339577e-04 -1.339627e-04 -1.339659e-04 -1.339676e-04 -1.339685e-04 -1.339687e-04 -1.339685e-04 -1.339676e-04 -1.339659e-04 -1.339627e-04 -1.339577e-04 -1.339508e-04 -1.339424e-04 -1.339335e-04 -1.339255e-04 -1.339195e-04 -1.339158e-04 -1.339146e-04 -1.339158e-04 -1.339195e-04 -1.339255e-04 -1.339335e-04
  -1.339152e-04 -1.339255e-04 -1.339370e-04 -1.339478e-04 -1.339564e-04 -1.339624e-04 -1.339659e-04 -1.339677e-04 -1.339685e-04 -1.339685e-04 -1.339677e-04 -1.339659e-04 -1.339624e-04 -1.339564e-04 -1.339478e-04 -1.339370e-04 -1.339255e-04 -1.339152e-04 -1.339074e-04 -1.339024e-04 -1.339002e-04 -1.339002e-04 -1.339024e-04 -1.339074e-04 -1.339152e-04
  -1.338985e-04 -1.339074e-04 -1.339195e-04 -1.339331e-04 -1.339458e-04 -1.339557e-04 -1.339623e-04 -1.339659e-04 -1.339676e-04 -1.339681e-04 -1.339676e-04 -1.339659e-04 -1.339623e-04 -1.339557e-04 -1.339458e-04 -1.339331e-04 -1.339195e-04 -1.339074e-04 -1.338985e-04 -1.338932e-04 -1.338908e-04 -1.338902e-04 -1.338908e-04 -1.338932e-04 -1.338985e-04
  -1.338885e-04 -1.338932e-04 -1.339024e-04 -1.339158e-04 -1.339311e-04 -1.339451e-04 -1.339557e-04 -1.339624e-04 -1.339659e-04 -1.339673e-04 -1.339673e-04 -1.339659e-04 -1.339624e-04 -1.339557e-04 -1.339451e-04 -1.339311e-04 -1.339158e-04 -1.339024e-04 -1.338932e-04 -1.338885e-04 -1.338871e-04 -1.338869e-04 -1.338869e-04 -1.338871e-04 -1.338885e-04
  -1.338871e-04 -1.338871e-04 -1.338908e-04 -1.339002e-04 -1.339146e-04 -1.339311e-04 -1.339458e-04 -1.339564e-04 -1.339627e-04 -1.339657e-04 -1.339666e-04 -1.339657e-04 -1.339627e-04 -1.339564e-04 -1.339458e-04 -1.339311e-04 -1.339146e-04 -1.339002e-04 -1.338908e-04 -1.338871e-04 -1.338871e-04 -1.338882e-04 -1.338888e-04 -1.338882e-04 -1.338871e-04
  -1.338908e-04 -1.338882e-04 -1.338869e-04 -1.338902e-04 -1.339002e-04 -1.339158e-04 -1.339331e-04 -1.339478e-04 -1.339577e-04 -1.339632e-04 -1.339655e-04 -1.339655e-04 -1.339632e-04 -1.339577e-04 -1.339478e-04 -1.339331e-04 -1.339158e-04 -1.339002e-04 -1.338902e-04 -1.338869e-04 -1.338882e-04 -1.338908e-04 -1.338924e-04 -1.338924e-04 -1.338908e-04
  -1.338948e-04 -1.338924e-04 -1.338888e-04 -1.338869e-04 -1.338908e-04 -1.339024e-04 -1.339195e-04 -1.339370e-04 -1.339508e-04 -1.339594e-04 -1.339637e-04 -1.339650e-04 -1.339637e-04 -1.339594e-04 -1.339508e-04 -1.339370e-04 -1.339195e-04 -1.339024e-04 -1.338908e-04 -1.338869e-04 -1.338888e-04 -1.338924e-04 -1.338948e-04 -1.338955e-04 -1.338948e-04
  -1.338965e-04 -1.338955e-04 -1.338924e-04 -1.338882e-04 -1.338871e-04 -1.338932e-04 -1.339074e-04 -1.339255e-04 -1.339424e-04 -1.339544e-04 -1.339612e-04 -1.339641e-04 -1.339641e-04 -1.339612e-04 -1.339544e-04 -1.339424e-04 -1.339255e-04 -1.339074e-04 -1.338932e-04 -1.338871e-04 -1.338882e-04 -1.338924e-04 -1.338955e-04 -1.338965e-04 -1.338965e-04
  -1.338968e-04 -1.338965e-04 -1.338948e-04 -1.338908e-04 -1.338870e-04 -1.338885e-04 -1.338985e-04 -1.339152e-04 -1.339335e-04 -1.339485e-04 -1.339581e-04 -1.339629e-04 -1.339643e-04 -1.339629e-04 -1.339581e-04 -1.339485e-04 -1.339335e-04 -1.339152e-04 -1.338985e-04 -1.338885e-04 -1.338870e-04 -1.338908e-04 -1.338948e-04 -1.338965e-04 -1.338968e-04
  -1.340487e-04 -1.340412e-04 -1.340194e-04 -1.339869e-04 -1.339527e-04 -1.339279e-04 -1.339190e-04 -1.339246e-04 -1.339372e-04 -1.339496e-04 -1.339582e-04 -1.339627e-04 -1.339640e-04 -1.339627e-04 -1.339582e-04 -1.339496e-04 -1.339372e-04 -1.339246e-04 -1.339190e-04 -1.339279e-04 -1.339527e-04 -1.339869e-04 -1.340194e-04 -1.340412e-04 -1.340487e-04
  -1.340412e-04 -1.340412e-04 -1.340265e-04 -1.339991e-04 -1.339655e-04 -1.339363e-04 -1.339206e-04 -1.339205e-04 -1.339309e-04 -1.339441e-04 -1.339546e-04 -1.339609e-04 -1.339636e-04 -1.339636e-04 -1.339609e-04 -1.339546e-04 -1.339441e-04 -1.339309e-04 -1.339205e-04 -1.339206e-04 -1.339363e-04 -1.339655e-04 -1.339991e-04 -1.340265e-04 -1.340412e-04
  -1.340194e-04 -1.340265e-04 -1.340194e-04 -1.339991e-04 -1.339704e-04 -1.339419e-04 -1.339233e-04 -1.339190e-04 -1.339267e-04 -1.339394e-04 -1.339511e-04 -1.339590e-04 -1.339629e-04 -1.339641e-04 -1.339629e-04 -1.339590e-04 -1.339511e-04 -1.339394e-04 -1.339267e-04 -1.339190e-04 -1.339233e-04 -1.339419e-04 -1.339704e-04 -1.339991e-04 -1.340194e-04
  -1.339869e-04 -1.339992e-04 -1.339992e-04 -1.339869e-04 -1.339655e-04 -1.339419e-04 -1.339245e-04 -1.339188e-04 -1.339244e-04 -1.339362e-04 -1.339483e-04 -1.339572e-04 -1.339623e-04 -1.339644e-04 -1.339644e-04 -1.339623e-04 -1.339572e-04 -1.339483e-04 -1.339362e-04 -1.339244e-04 -1.339188e-04 -1.339245e-04 -1.339419e-04 -1.339655e-04 -1.339869e-04
  -1.339527e-04 -1.339658e-04 -1.339708e-04 -1.339658e-04 -1.339527e-04 -1.339363e-04 -1.339233e-04 -1.339188e-04 -1.339237e-04 -1.339346e-04 -1.339465e-04 -1.339559e-04 -1.339617e-04 -1.339645e-04 -1.339653e-04 -1.339645e-04 -1.339617e-04 -1.339559e-04 -1.339465e-04 -1.339346e-04 -1.339237e-04 -1.339188e-04 -1.339233e-04 -1.339363e-04 -1.339527e-04
  -1.339279e-04 -1.339368e-04 -1.339427e-04 -1.339427e-04 -1.339368e-04 -1.339279e-04 -1.339206e-04 -1.339190e-04 -1.339244e-04 -1.339346e-04 -1.339459e-04 -1.339552e-04 -1.339613e-04 -1.339645e-04 -1.339659e-04 -1.339659e-04 -1.339645e-04 -1.339613e-04 -1.339552e-04 -1.339459e-04 -1.339346e-04 -1.339244e-04 -1.339190e-04 -1.339206e-04 -1.339279e-04
  -1.339190e-04 -1.339212e-04 -1.339243e-04 -1.339257e-04 -1.339243e-04 -1.339212e-04 -1.339190e-04 -1.339205e-04 -1.339267e-04 -1.339362e-04 -1.339465e-04 -1.339552e-04 -1.339611e-04 -1.339645e-04 -1.339661e-04 -1.339666e-04 -1.339661e-04 -1.339645e-04 -1.339611e-04 -1.339552e-04 -1.339465e-04 -1.339362e-04 -1.339267e-04 -1.339205e-04 -1.339190e-04
  -1.339246e-04 -1.339212e-04 -1.339202e-04 -1.339202e-04 -1.339202e-04 -1.339202e-04 -1.339212e-04 -1.339246e-04 -1.339309e-04 -1.339394e-04 -1.339483e-04 -1.339559e-04 -1.339613e-04 -1.339645e-04 -1.339662e-04 -1.339669e-04 -1.339669e-04 -1.339662e-04 -1.339645e-04 -1.339613e-04 -1.339559e-04 -1.339483e-04 -1.339394e-04 -1.339309e-04 -1.339246e-04
  -1.339372e-04 -1.339315e-04 -1.339278e-04 -1.339259e-04 -1.339254e-04 -1.339259e-04 -1.339278e-04 -1.339315e-04 -1.339372e-04 -1.339441e-04 -1.339511e-04 -1.339572e-04 -1.339617e-04 -1.339645e-04 -1.339661e-04 -1.339669e-04 -1.339672e-04 -1.339669e-04 -1.339661e-04 -1.339645e-04 -1.339617e-04 -1.339572e-04 -1.339511e-04 -1.339441e-04 -1.339372e-04
  -1.339496e-04 -1.339447e-04 -1.339406e-04 -1.339378e-04 -1.339364e-04 -1.339364e-04 -1.339378e-04 -1.339406e-04 -1.339447e-04 -1.339496e-04 -1.339546e-04 -1.339590e-04 -1.339623e-04 -1.339645e-04 -1.339659e-04 -1.339666e-04 -1.339669e-04 -1.339669e-04 -1.339666e-04 -1.339659e-04 -1.339645e-04 -1.339623e-04 -1.339590e-04 -1.339546e-04 -1.339496e-04
  -1.339582e-04 -1.339552e-04 -1.339523e-04 -1.339500e-04 -1.339484e-04 -1.339479e-04 -1.339484e-04 -1.339500e-04 -1.339523e-04 -1.339552e-04 -1.339582e-04 -1.339609e-04 -1.339629e-04 -1.339644e-04 -1.339653e-04 -1.339659e-04 -1.339661e-04 -1.339662e-04 -1.339661e-04 -1.339659e-04 -1.339653e-04 -1.339644e-04 -1.339629e-04 -1.339609e-04 -1.339582e-04
  -1.339627e-04 -1.339615e-04 -1.339601e-04 -1.339589e-04 -1.339579e-04 -1.339574e-04 -1.339574e-04 -1.339579e-04 -1.339589e-04 -1.339601e-04 -1.339615e-04 -1.339627e-04 -1.339636e-04 -1.339641e-04 -1.339644e-04 -1.339645e-04 -1.339645e-04 -1.339645e-04 -1.339645e-04 -1.339645e-04 -1.339645e-04 -1.339644e-04 -1.339641e-04 -1.339636e-04 -1.339627e-04
  -1.339640e-04 -1.339642e-04 -1.339641e-04 -1.339639e-04 -1.339637e-04 -1.339635e-04 -1.339635e-04 -1.339635e-04 -1.339637e-04 -1.339639e-04 -1.339641e-04 -1.339642e-04 -1.339640e-04 -1.339636e-04 -1.339629e-04 -1.339623e-04 -1.339617e-04 -1.339613e-04 -1.339611e-04 -1.339613e-04 -1.339617e-04 -1.339623e-04 -1.339629e-04 -1.339636e-04 -1.339640e-04
  -1.339627e-04 -1.339642e-04 -1.339653e-04 -1.339660e-04 -1.339665e-04 -1.339668e-04 -1.339670e-04 -1.339670e-04 -1.339668e-04 -1.339665e-04 -1.339660e-04 -1.339653e-04 -1.339642e-04 -1.339627e-04 -1.339609e-04 -1.339590e-04 -1.339572e-04 -1.339559e-04 -1.339552e-04 -1.339552e-04 -1.339559e-04 -1.339572e-04 -1.339590e-04 -1.339609e-04 -1.339627e-04
  -1.339582e-04 -1.339615e-04 -1.339641e-04 -1.339660e-04 -1.339674e-04 -1.339682e-04 -1.339686e-04 -1.339688e-04 -1.339686e-04 -1.339682e-04 -1.339674e-04 -1.339660e-04 -1.339641e-04 -1.339615e-04 -1.339582e-04 -1.339546e-04 -1.339511e-04 -1.339483e-04 -1.339465e-04 -1.339459e-04 -1.339465e-04 -1.339483e-04 -1.339511e-04 -1.339546e-04 -1.339582e-04
  -1.339496e-04 -1.339552e-04 -1.339601e-04 -1.339639e-04 -1.339665e-04 -1.339682e-04 -1.339691e-04 -1.339695e-04 -1.339695e-04 -1.339691e-04 -1.339682e-04 -1.339665e-04 -1.339639e-04 -1.339601e-04 -1.339552e-04 -1.339496e-04 -1.339441e-04 -1.339394e-04 -1.339362e-04 -1.339346e-04 -1.339346e-04 -1.339362e-04 -1.339394e-04 -1.339441e-04 -1.339496e-04
  -1.339372e-04 -1.339447e-04 -1.339523e-04 -1.339589e-04 -1.339637e-04 -1.339668e-04 -1.339686e-04 -1.339695e-04 -1.339698e-04 -1.339695e-04 -1.339686e-04 -1.339668e-04 -1.339637e-04 -1.339589e-04 -1.339523e-04 -1.339447e-04 -1.339372e-04 -1.339309e-04 -1.339267e-04 -1.339244e-04 -1.339237e-04 -1.339244e-04 -1.339267e-04 -1.339309e-04 -1.339372e-04
  -1.339246e-04 -1.339315e-04 -1.339406e-04 -1.339500e-04 -1.339579e-04 -1.339635e-04 -1.339670e-04 -1.339688e-04 -1.339695e-04 -1.339695e-04 -1.339688e-04 -1.339670e-04 -1.339635e-04 -1.339579e-04 -1.339500e-04 -1.339406e-04 -1.339315e-04 -1.339246e-04 -1.339205e-04 -1.339190e-04 -1.339188e-04 -1.339188e-04 -1.339190e-04 -1.339205e-04 -1.339246e-04
  -1.339190e-04 -1.339212e-04 -1.339278e-04 -1.339378e-04 -1.339484e-04 -1.339574e-04 -1.339635e-04 -1.339670e-04 -1.339686e-04 -1.339691e-04 -1.339686e-04 -1.339670e-04 -1.339635e-04 -1.339574e-04 -1.339484e-04 -1.339378e-04 -1.339278e-04 -1.339212e-04 -1.339190e-04 -1.339206e-04 -1.339233e-04 -1.339245e-04 -1.339233e-04 -1.339206e-04 -1.339190e-04
  -1.339279e-04 -1.339212e-04 -1.339202e-04 -1.339259e-04 -1.339364e-04 -1.339479e-04 -1.339574e-04 -1.339635e-04 -1.339668e-04 -1.339682e-04 -1.339682e-04 -1.339668e-04 -1.339635e-04 -1.339574e-04 -1.339479e-04 -1.339364e-04 -1.339259e-04 -1.339202e-04 -1.339212e-04 -1.339279e-04 -1.339363e-04 -1.339419e-04 -1.339419e-04 -1.339363e-04 -1.339279e-04
  -1.339527e-04 -1.339368e-04 -1.339243e-04 -1.339202e-04 -1.339254e-04 -1.339364e-04 -1.339484e-04 -1.339579e-04 -1.339637e-04 -1.339665e-04 -1.339674e-04 -1.339665e-04 -1.339637e-04 -1.339579e-04 -1.339484e-04 -1.339364e-04 -1.339254e-04 -1.339202e-04 -1.339243e-04 -1.339368e-04 -1.339527e-04 -1.339655e-04 -1.339704e-04 -1.339655e-04 -1.339527e-04
  -1.339869e-04 -1.339658e-04 -1.339427e-04 -1.339257e-04 -1.339202e-04 -1.339259e-04 -1.339378e-04 -1.339500e-04 -1.339589e-04 -1.339639e-04 -1.339660e-04 -1.339660e-04 -1.339639e-04 -1.339589e-04 -1.339500e-04 -1.339378e-04 -1.339259e-04 -1.339202e-04 -1.339257e-04 -1.339427e-04 -1.339658e-04 -1.339869e-04 -1.339991e-04 -1.339991e-04 -1.339869e-04
  -1.340194e-04 -1.339992e-04 -1.339708e-04 -1.339427e-04 -1.339243e-04 -1.339202e-04 -1.339278e-04 -1.339406e-04 -1.339523e-04 -1.339601e-04 -1.339641e-04 -1.339653e-04 -1.339641e-04 -1.339601e-04 -1.339523e-04 -1.339406e-04 -1.339278e-04 -1.339202e-04 -1.339243e-04 -1.339427e-04 -1.339708e-04 -1.339992e-04 -1.340194e-04 -1.340265e-04 -1.340194e-04
  -1.340412e-04 -1.340265e-04 -1.339992e-04 -1.339658e-04 -1.339368e-04 -1.339212e-04 -1.339212e-04 -1.339315e-04 -1.339447e-04 -1.339552e-04 -1.339615e-04 -1.339642e-04 -1.339642e-04 -1.339615e-04 -1.339552e-04 -1.339447e-04 -1.339315e-04 -1.339212e-04 -1.339212e-04 -1.339368e-04 -1.339658e-04 -1.339992e-04 -1.340265e-04 -1.340412e-04 -1.340412e-04
  -1.340487e-04 -1.340412e-04 -1.340194e-04 -1.339869e-04 -1.339527e-04 -1.339279e-04 -1.339190e-04 -1.339246e-04 -1.339372e-04 -1.339496e-04 -1.339582e-04 -1.339627e-04 -1.339640e-04 -1.339627e-04 -1.339582e-04 -1.339496e-04 -1.339372e-04 -1.339246e-04 -1.339190e-04 -1.339279e-04 -1.339527e-04 -1.339869e-04 -1.340194e-04 -1.340412e-04 -1.340487e-04
  -1.341148e-04 -1.341046e-04 -1.340753e-04 -1.340325e-04 -1.339872e-04 -1.339523e-04 -1.339352e-04 -1.339345e-04 -1.339427e-04 -1.339521e-04 -1.339590e-04 -1.339626e-04 -1.339637e-04 -1.339626e-04 -1.339590e-04 -1.339521e-04 -1.339427e-04 -1.339345e-04 -1.339352e-04 -1.339523e-04 -1.339872e-04 -1.340325e-04 -1.340753e-04 -1.341046e-04 -1.341148e-04
  -1.341046e-04 -1.341046e-04 -1.340849e-04 -1.340488e-04 -1.340047e-04 -1.339650e-04 -1.339403e-04 -1.339331e-04 -1.339382e-04 -1.339476e-04 -1.339558e-04 -1.339608e-04 -1.339630e-04 -1.339630e-04 -1.339608e-04 -1.339558e-04 -1.339476e-04 -1.339382e-04 -1.339331e-04 -1.339403e-04 -1.339650e-04 -1.340047e-04 -1.340488e-04 -1.340849e-04 -1.341046e-04
  -1.340753e-04 -1.340848e-04 -1.340753e-04 -1.340488e-04 -1.340112e-04 -1.339732e-04 -1.339455e-04 -1.339337e-04 -1.339355e-04 -1.339440e-04 -1.339529e-04 -1.339590e-04 -1.339622e-04 -1.339632e-04 -1.339622e-04 -1.339590e-04 -1.339529e-04 -1.339440e-04 -1.339355e-04 -1.339337e-04 -1.339455e-04 -1.339732e-04 -1.340112e-04 -1.340488e-04 -1.340753e-04
  -1.340325e-04 -1.340485e-04 -1.340485e-04 -1.340325e-04 -1.340047e-04 -1.339732e-04 -1.339477e-04 -1.339347e-04 -1.339343e-04 -1.339416e-04 -1.339505e-04 -1.339574e-04 -1.339615e-04 -1.339632e-04 -1.339632e-04 -1.339615e-04 -1.339574e-04 -1.339505e-04 -1.339416e-04 -1.339343e-04 -1.339347e-04 -1.339477e-04 -1.339732e-04 -1.340047e-04 -1.340325e-04
  -1.339872e-04 -1.340043e-04 -1.340107e-04 -1.340043e-04 -1.339872e-04 -1.339650e-04 -1.339455e-04 -1.339347e-04 -1.339340e-04 -1.339404e-04 -1.339491e-04 -1.339563e-04 -1.339608e-04 -1.339631e-04 -1.339638e-04 -1.339631e-04 -1.339608e-04 -1.339563e-04 -1.339491e-04 -1.339404e-04 -1.339340e-04 -1.339347e-04 -1.339455e-04 -1.339650e-04 -1.339872e-04
  -1.339523e-04 -1.339648e-04 -1.339727e-04 -1.339727e-04 -1.339648e-04 -1.339523e-04 -1.339403e-04 -1.339337e-04 -1.339343e-04 -1.339404e-04 -1.339486e-04 -1.339557e-04 -1.339604e-04 -1.339630e-04 -1.339641e-04 -1.339641e-04 -1.339630e-04 -1.339604e-04 -1.339557e-04 -1.339486e-04 -1.339404e-04 -1.339343e-04 -1.339337e-04 -1.339403e-04 -1.339523e-04
  -1.339352e-04 -1.339404e-04 -1.339455e-04 -1.339476e-04 -1.339455e-04 -1.339404e-04 -1.339352e-04 -1.339331e-04 -1.339355e-04 -1.339416e-04 -1.339491e-04 -1.339557e-04 -1.339603e-04 -1.339630e-04 -1.339643e-04 -1.339647e-04 -1.339643e-04 -1.339630e-04 -1.339603e-04 -1.339557e-04 -1.339491e-04 -1.339416e-04 -1.339355e-04 -1.339331e-04 -1.339352e-04
  -1.339345e-04 -1.339335e-04 -1.339343e-04 -1.339353e-04 -1.339353e-04 -1.339343e-04 -1.339335e-04 -1.339345e-04 -1.339382e-04 -1.339440e-04 -1.339505e-04 -1.339563e-04 -1.339604e-04 -1.339630e-04 -1.339644e-04 -1.339649e-04 -1.339649e-04 -1.339644e-04 -1.339630e-04 -1.339604e-04 -1.339563e-04 -1.339505e-04 -1.339440e-04 -1.339382e-04 -1.339345e-04
  -1.339427e-04 -1.339389e-04 -1.339367e-04 -1.339357e-04 -1.339355e-04 -1.339357e-04 -1.339367e-04 -1.339389e-04 -1.339427e-04 -1.339476e-04 -1.339529e-04 -1.339574e-04 -1.339608e-04 -1.339630e-04 -1.339643e-04 -1.339649e-04 -1.339651e-04 -1.339649e-04 -1.339643e-04 -1.339630e-04 -1.339608e-04 -1.339574e-04 -1.339529e-04 -1.339476e-04 -1.339427e-04
  -1.339521e-04 -1.339486e-04 -1.339456e-04 -1.339437e-04 -1.339428e-04 -1.339428e-04 -1.339437e-04 -1.339456e-04 -1.339486e-04 -1.339521e-04 -1.339558e-04 -1.339590e-04 -1.339615e-04 -1.339631e-04 -1.339641e-04 -1.339647e-04 -1.339649e-04 -1.339649e-04 -1.339647e-04 -1.339641e-04 -1.339631e-04 -1.339615e-04 -1.339590e-04 -1.339558e-04 -1.339521e-04
  -1.339590e-04 -1.339569e-04 -1.339549e-04 -1.339532e-04 -1.339521e-04 -1.339518e-04 -1.339521e-04 -1.339532e-04 -1.339549e-04 -1.339569e-04 -1.339590e-04 -1.339608e-04 -1.339622e-04 -1.339632e-04 -1.339638e-04 -1.339641e-04 -1.339643e-04 -1.339644e-04 -1.339643e-04 -1.339641e-04 -1.339638e-04 -1.339632e-04 -1.339622e-04 -1.339608e-04 -1.339590e-04
  -1.339626e-04 -1.339620e-04 -1.339612e-04 -1.339605e-04 -1.339599e-04 -1.339596e-04 -1.339596e-04 -1.339599e-04 -1.339605e-04 -1.339612e-04 -1.339620e-04 -1.339626e-04 -1.339630e-04 -1.339632e-04 -1.339632e-04 -1.339631e-04 -1.339630e-04 -1.339630e-04 -1.339630e-04 -1.339630e-04 -1.339631e-04 -1.339632e-04 -1.339632e-04 -1.339630e-04 -1.339626e-04
  -1.339637e-04 -1.339642e-04 -1.339645e-04 -1.339647e-04 -1.339648e-04 -1.339648e-04 -1.339648e-04 -1.339648e-04 -1.339648e-04 -1.339647e-04 -1.339645e-04 -1.339642e-04 -1.339637e-04 -1.339630e-04 -1.339622e-04 -1.339615e-04 -1.339608e-04 -1.339604e-04 -1.339603e-04 -1.339604e-04 -1.339608e-04 -1.339615e-04 -1.339622e-04 -1.339630e-04 -1.339637e-04
  -1.339626e-04 -1.339642e-04 -1.339655e-04 -1.339664e-04 -1.339671e-04 -1.339676e-04 -1.339678e-04 -1.339678e-04 -1.339676e-04 -1.339671e-04 -1.339664e-04 -1.339655e-04 -1.339642e-04 -1.339626e-04 -1.339608e-04 -1.339590e-04 -1.339574e-04 -1.339563e-04 -1.339557e-04 -1.339557e-04 -1.339563e-04 -1.339574e-04 -1.339590e-04 -1.339608e-04 -1.339626e-04
  -1.339590e-04 -1.339620e-04 -1.339645e-04 -1.339664e-04 -1.339678e-04 -1.339687e-04 -1.339693e-04 -1.339694e-04 -1.339693e-04 -1.339687e-04 -1.339678e-04 -1.339664e-04 -1.339645e-04 -1.339620e-04 -1.339590e-04 -1.339558e-04 -1.339529e-04 -1.339505e-04 -1.339491e-04 -1.339486e-04 -1.339491e-04 -1.339505e-04 -1.339529e-04 -1.339558e-04 -1.339590e-04
  -1.339521e-04 -1.339569e-04 -1.339612e-04 -1.339647e-04 -1.339671e-04 -1.339687e-04 -1.339697e-04 -1.339701e-04 -1.339701e-04 -1.339697e-04 -1.339687e-04 -1.339671e-04 -1.339647e-04 -1.339612e-04 -1.339569e-04 -1.339521e-04 -1.339476e-04 -1.339440e-04 -1.339416e-04 -1.339404e-04 -1.339404e-04 -1.339416e-04 -1.339440e-04 -1.339476e-04 -1.339521e-04
  -1.339427e-04 -1.339486e-04 -1.339549e-04 -1.339605e-04 -1.339648e-04 -1.339676e-04 -1.339693e-04 -1.339701e-04 -1.339704e-04 -1.339701e-04 -1.339693e-04 -1.339676e-04 -1.339648e-04 -1.339605e-04 -1.339549e-04 -1.339486e-04 -1.339427e-04 -1.339382e-04 -1.339355e-04 -1.339343e-04 -1.339340e-04 -1.339343e-04 -1.339355e-04 -1.339382e-04 -1.339427e-04
  -1.339345e-04 -1.339389e-04 -1.339456e-04 -1.339532e-04 -1.339599e-04 -1.339648e-04 -1.339678e-04 -1.339694e-04 -1.339701e-04 -1.339701e-04 -1.339694e-04 -1.339678e-04 -1.339648e-04 -1.339599e-04 -1.339532e-04 -1.339456e-04 -1.339389e-04 -1.339345e-04 -1.339331e-04 -1.339337e-04 -1.339347e-04 -1.339347e-04 -1.339337e-04 -1.339331e-04 -1.339345e-04
  -1.339352e-04 -1.339335e-04 -1.339367e-04 -1.339437e-04 -1.339521e-04 -1.339596e-04 -1.339648e-04 -1.339678e-04 -1.339693e-04 -1.339697e-04 -1.339693e-04 -1.339678e-04 -1.339648e-04 -1.339596e-04 -1.339521e-04 -1.339437e-04 -1.339367e-04 -1.339335e-04 -1.339352e-04 -1.339403e-04 -1.339455e-04 -1.339477e-04 -1.339455e-04 -1.339403e-04 -1.339352e-04
  -1.339523e-04 -1.339404e-04 -1.339343e-04 -1.339357e-04 -1.339428e-04 -1.339518e-04 -1.339596e-04 -1.339648e-04 -1.339676e-04 -1.339687e-04 -1.339687e-04 -1.339676e-04 -1.339648e-04 -1.339596e-04 -1.339518e-04 -1.339428e-04 -1.339357e-04 -1.339343e-04 -1.339404e-04 -1.339523e-04 -1.339650e-04 -1.339732e-04 -1.339732e-04 -1.339650e-04 -1.339523e-04
  -1.339872e-04 -1.339648e-04 -1.339455e-04 -1.339353e-04 -1.339355e-04 -1.339428e-04 -1.339521e-04 -1.339599e-04 -1.339648e-04 -1.339671e-04 -1.339678e-04 -1.339671e-04 -1.339648e-04 -1.339599e-04 -1.339521e-04 -1.339428e-04 -1.339355e-04 -1.339353e-04 -1.339455e-04 -1.339648e-04 -1.339872e-04 -1.340047e-04 -1.340112e-04 -1.340047e-04 -1.339872e-04
  -1.340325e-04 -1.340043e-04 -1.339727e-04 -1.339476e-04 -1.339353e-04 -1.339357e-04 -1.339437e-04 -1.339532e-04 -1.339605e-04 -1.339647e-04 -1.339664e-04 -1.339664e-04 -1.339647e-04 -1.339605e-04 -1.339532e-04 -1.339437e-04 -1.339357e-04 -1.339353e-04 -1.339476e-04 -1.339727e-04 -1.340043e-04 -1.340325e-04 -1.340488e-04 -1.340488e-04 -1.340325e-04
  -1.340753e-04 -1.340485e-04 -1.340107e-04 -1.339727e-04 -1.339455e-04 -1.339343e-04 -1.339367e-04 -1.339456e-04 -1.339549e-04 -1.339612e-04 -1.339645e-04 -1.339655e-04 -1.339645e-04 -1.339612e-04 -1.339549e-04 -1.339456e-04 -1.339367e-04 -1.339343e-04 -1.339455e-04 -1.339727e-04 -1.340107e-04 -1.340485e-04 -1.340753e-04 -1.340849e-04 -1.340753e-04
  -1.341046e-04 -1.340848e-04 -1.340485e-04 -1.340043e-04 -1.339648e-04 -1.339404e-04 -1.339335e-04 -1.339389e-04 -1.339486e-04 -1.339569e-04 -1.339620e-04 -1.339642e-04 -1.339642e-04 -1.339620e-04 -1.339569e-04 -1.339486e-04 -1.339389e-04 -1.339335e-04 -1.339404e-04 -1.339648e-04 -1.340043e-04 -1.340485e-04 -1.340848e-04 -1.341046e-04 -1.341046e-04
  -1.341148e-04 -1.341046e-04 -1.340753e-04 -1.340325e-04 -1.339872e-04 -1.339523e-04 -1.339352e-04 -1.339345e-04 -1.339427e-04 -1.339521e-04 -1.339590e-04 -1.339626e-04 -1.339637e-04 -1.339626e-04 -1.339590e-04 -1.339521e-04 -1.339427e-04 -1.339345e-04 -1.339352e-04 -1.339523e-04 -1.339872e-04 -1.340325e-04 -1.340753e-04 -1.341046e-04 -1.341148e-04
  -1.339680e-04 -1.339660e-04 -1.339596e-04 -1.339491e-04 -1.339377e-04 -1.339305e-04 -1.339308e-04 -1.339374e-04 -1.339466e-04 -1.339546e-04 -1.339599e-04 -1.339625e-04 -1.339632e-04 -1.339625e-04 -1.339599e-04 -1.339546e-04 -1.339466e-04 -1.339374e-04 -1.339308e-04 -1.339305e-04 -1.339377e-04 -1.339491e-04 -1.339596e-04 -1.339660e-04 -1.339680e-04
  -1.339660e-04 -1.339660e-04 -1.339619e-04 -1.339534e-04 -1.339423e-04 -1.339329e-04 -1.339297e-04 -1.339336e-04 -1.339420e-04 -1.339506e-04 -1.339571e-04 -1.339607e-04 -1.339623e-04 -1.339623e-04 -1.339607e-04 -1.339571e-04 -1.339506e-04 -1.339420e-04 -1.339336e-04 -1.339297e-04 -1.339329e-04 -1.339423e-04 -1.339534e-04 -1.339619e-04 -1.339660e-04
  -1.339596e-04 -1.339616e-04 -1.339596e-04 -1.339534e-04 -1.339441e-04 -1.339348e-04 -1.339299e-04 -1.339317e-04 -1.339386e-04 -1.339473e-04 -1.339545e-04 -1.339591e-04 -1.339614e-04 -1.339620e-04 -1.339614e-04 -1.339591e-04 -1.339545e-04 -1.339473e-04 -1.339386e-04 -1.339317e-04 -1.339299e-04 -1.339348e-04 -1.339441e-04 -1.339534e-04 -1.339596e-04
  -1.339491e-04 -1.339529e-04 -1.339529e-04 -1.339491e-04 -1.339423e-04 -1.339348e-04 -1.339302e-04 -1.339309e-04 -1.339368e-04 -1.339449e-04 -1.339524e-04 -1.339576e-04 -1.339605e-04 -1.339618e-04 -1.339618e-04 -1.339605e-04 -1.339576e-04 -1.339524e-04 -1.339449e-04 -1.339368e-04 -1.339309e-04 -1.339302e-04 -1.339348e-04 -1.339423e-04 -1.339491e-04
  -1.339377e-04 -1.339417e-04 -1.339432e-04 -1.339417e-04 -1.339377e-04 -1.339329e-04 -1.339299e-04 -1.339309e-04 -1.339362e-04 -1.339437e-04 -1.339511e-04 -1.339566e-04 -1.339599e-04 -1.339615e-04 -1.339620e-04 -1.339615e-04 -1.339599e-04 -1.339566e-04 -1.339511e-04 -1.339437e-04 -1.339362e-04 -1.339309e-04 -1.339299e-04 -1.339329e-04 -1.339377e-04
  -1.339305e-04 -1.339326e-04 -1.339341e-04 -1.339341e-04 -1.339326e-04 -1.339305e-04 -1.339297e-04 -1.339317e-04 -1.339368e-04 -1.339437e-04 -1.339506e-04 -1.339560e-04 -1.339595e-04 -1.339614e-04 -1.339622e-04 -1.339622e-04 -1.339614e-04 -1.339595e-04 -1.339560e-04 -1.339506e-04 -1.339437e-04 -1.339368e-04 -1.339317e-04 -1.339297e-04 -1.339305e-04
  -1.339308e-04 -1.339298e-04 -1.339299e-04 -1.339301e-04 -1.339299e-04 -1.339298e-04 -1.339308e-04 -1.339336e-04 -1.339386e-04 -1.339449e-04 -1.339511e-04 -1.339560e-04 -1.339594e-04 -1.339613e-04 -1.339622e-04 -1.339625e-04 -1.339622e-04 -1.339613e-04 -1.339594e-04 -1.339560e-04 -1.339511e-04 -1.339449e-04 -1.339386e-04 -1.339336e-04 -1.339308e-04
  -1.339374e-04 -1.339343e-04 -1.339326e-04 -1.339319e-04 -1.339319e-04 -1.339326e-04 -1.339343e-04 -1.339374e-04 -1.339420e-04 -1.339473e-04 -1.339524e-04 -1.339566e-04 -1.339595e-04 -1.339613e-04 -1.339623e-04 -1.339627e-04 -1.339627e-04 -1.339623e-04 -1.339613e-04 -1.339595e-04 -1.339566e-04 -1.339524e-04 -1.339473e-04 -1.339420e-04 -1.339374e-04