
*************** JDFTx 1.4.2  ***************

Start date and time: Tue Mar 19 06:13:36 2019
Executable jdftx with command-line: -i Charged.in
Running on hosts (process indices):  Juans-MBP.lan1 (0-3)
Divided in process groups (process indices):  0 (0)  1 (1)  2 (2)  3 (3)
Resource initialization completed at t[s]:      0.00
Run totals: 4 processes, 12 threads, 0 GPUs


Input parsed successfully to the following command list (including defaults):

basis kpoint-dependent
coords-type Lattice
core-overlap-check vector
coulomb-interaction Slab 001
coulomb-truncation-embed 0 0 0
davidson-band-ratio 1.1
dump End State BoundCharge
dump-name common.$VAR
elec-cutoff 20 100
elec-eigen-algo Davidson
elec-ex-corr gga-PBEsol
elec-smearing Fermi 0.01
electronic-minimize  \
	dirUpdateScheme      FletcherReeves \
	linminMethod         DirUpdateRecommended \
	nIterations          200 \
	history              15 \
	knormThreshold       0 \
	energyDiffThreshold  1e-08 \
	nEnergyDiff          2 \
	alphaTstart          1 \
	alphaTmin            1e-10 \
	updateTestStepSize   yes \
	alphaTreduceFactor   0.1 \
	alphaTincreaseFactor 3 \
	nAlphaAdjustMax      3 \
	wolfeEnergy          0.0001 \
	wolfeGradient        0.9 \
	fdTest               no
exchange-regularization WignerSeitzTruncated
fluid LinearPCM 298.000000 1.013250
fluid-anion F- 1 MeanFieldLJ \
	epsBulk 1 \
	pMol 0 \
	epsInf 1 \
	Pvap 0 \
	sigmaBulk 0 \
	Rvdw 2.24877 \
	Res 0
fluid-cation Na+ 1 MeanFieldLJ \
	epsBulk 1 \
	pMol 0 \
	epsInf 1 \
	Pvap 0 \
	sigmaBulk 0 \
	Rvdw 2.19208 \
	Res 0
fluid-ex-corr lda-TF lda-PZ
fluid-gummel-loop 10 1.000000e-05
fluid-minimize  \
	dirUpdateScheme      PolakRibiere \
	linminMethod         DirUpdateRecommended \
	nIterations          400 \
	history              15 \
	knormThreshold       1e-11 \
	energyDiffThreshold  0 \
	nEnergyDiff          2 \
	alphaTstart          1 \
	alphaTmin            1e-10 \
	updateTestStepSize   yes \
	alphaTreduceFactor   0.1 \
	alphaTincreaseFactor 3 \
	nAlphaAdjustMax      6 \
	wolfeEnergy          0.0001 \
	wolfeGradient        0.9 \
	fdTest               no
fluid-solvent H2O 55.338 ScalarEOS \
	epsBulk 78.4 \
	pMol 0.92466 \
	epsInf 1.77 \
	Pvap 1.06736e-10 \
	sigmaBulk 4.62e-05 \
	Rvdw 2.61727 \
	Res 1.42
forces-output-coords Positions
initial-state common.$VAR
ion Pt   0.333333000000000  -0.333333000000000  -0.237676000000000 1
ion Pt  -0.333333000000000   0.333333000000000  -0.118838000000000 1
ion Pt   0.000000000000000   0.000000000000000   0.000000000000000 1
ion Pt   0.333333000000000  -0.333333000000000   0.118838000000000 1
ion Pt  -0.333333000000000   0.333333000000000   0.237676000000000 1
ion-species GBRV/$ID_pbesol.uspp
ion-width Ecut
ionic-minimize  \
	dirUpdateScheme      L-BFGS \
	linminMethod         DirUpdateRecommended \
	nIterations          0 \
	history              15 \
	knormThreshold       0.0001 \
	energyDiffThreshold  1e-06 \
	nEnergyDiff          2 \
	alphaTstart          1 \
	alphaTmin            1e-10 \
	updateTestStepSize   yes \
	alphaTreduceFactor   0.1 \
	alphaTincreaseFactor 3 \
	nAlphaAdjustMax      3 \
	wolfeEnergy          0.0001 \
	wolfeGradient        0.9 \
	fdTest               no
kpoint   0.000000000000   0.000000000000   0.000000000000  1.00000000000000
kpoint-folding 12 12 1 
latt-move-scale 1 1 1
latt-scale 1 1 1 
lattice Hexagonal 5.23966 36
lattice-minimize  \
	dirUpdateScheme      L-BFGS \
	linminMethod         DirUpdateRecommended \
	nIterations          0 \
	history              15 \
	knormThreshold       0 \
	energyDiffThreshold  1e-06 \
	nEnergyDiff          2 \
	alphaTstart          1 \
	alphaTmin            1e-10 \
	updateTestStepSize   yes \
	alphaTreduceFactor   0.1 \
	alphaTincreaseFactor 3 \
	nAlphaAdjustMax      3 \
	wolfeEnergy          0.0001 \
	wolfeGradient        0.9 \
	fdTest               no
lcao-params -1 1e-06 0.01
pcm-variant CANDLE
spintype no-spin
subspace-rotation-factor 1 yes
symmetries automatic
symmetry-threshold 0.0001
target-mu -0.2309 no




---------- Setting up symmetries ----------

Found 24 point-group symmetries of the bravais lattice
Found 12 space-group symmetries with basis
Applied RMS atom displacement 2.70575e-06 bohrs to make symmetries exact.

---------- Initializing the Grid ----------
R = 
[    5.23966   -2.61983          0  ]
[          0    4.53768          0  ]
[          0          0         36  ]
unit cell volume = 855.932
G =
[    1.19916   0.692335         -0  ]
[          0    1.38467          0  ]
[          0         -0   0.174533  ]
Minimum fftbox size, Smin = [  24  24  164  ]
Chosen fftbox size, S = [  24  24  168  ]

---------- Initializing tighter grid for wavefunction operations ----------
R = 
[    5.23966   -2.61983          0  ]
[          0    4.53768          0  ]
[          0          0         36  ]
unit cell volume = 855.932
G =
[    1.19916   0.692335         -0  ]
[          0    1.38467          0  ]
[          0         -0   0.174533  ]
Minimum fftbox size, Smin = [  24  24  148  ]
Chosen fftbox size, S = [  24  24  150  ]

---------- Exchange Correlation functional ----------
Initalized PBEsol GGA exchange.
Initalized PBEsol GGA correlation.

---------- Setting up pseudopotentials ----------
Width of ionic core gaussian charges (only for fluid interactions / plotting) set to 0.397384

Reading pseudopotential file '/Users/juanmendezvalderrama/Documents/JDFTX/build/pseudopotentials/GBRV/pt_pbesol.uspp':
  Title: Pt.  Created by USPP 7.3.6 on 22-9-15
  Reference state energy: -104.899005.  16 valence electrons in orbitals:
    |510>  occupation: 6  eigenvalue: -2.158847
    |520>  occupation: 9.5  eigenvalue: -0.336311
    |600>  occupation: 0  eigenvalue: -0.320324
    |610>  occupation: 0  eigenvalue: -0.119800
  lMax: 2  lLocal: 3  QijEcut: 5.5
  6 projectors sampled on a log grid with 745 points:
    l: 0  eig: -0.320324  rCut: 2.45
    l: 0  eig: 1.500000  rCut: 2.45
    l: 1  eig: -2.158847  rCut: 1.6
    l: 1  eig: -0.119800  rCut: 1.6
    l: 2  eig: -0.500000  rCut: 1.6
    l: 2  eig: -0.336311  rCut: 1.6
  Partial core density with radius 1.1
  Transforming core density to a uniform radial grid of dG=0.02 with 1620 points.
  Transforming local potential to a uniform radial grid of dG=0.02 with 1620 points.
  Transforming nonlocal projectors to a uniform radial grid of dG=0.02 with 432 points.
  Transforming density augmentations to a uniform radial grid of dG=0.02 with 1620 points.
  Transforming atomic orbitals to a uniform radial grid of dG=0.02 with 432 points.
  Core radius for overlap checks: 2.45 bohrs.

Initialized 1 species with 5 total atoms.

Folded 1 k-points by 12x12x1 to 144 k-points.

---------- Setting up k-points, bands, fillings ----------
Reduced to 19 k-points under symmetry. 
Computing the number of bands and number of electrons
Reading initial fillings from file common.fillings.
nElectrons:  79.909859   nBands: 60   nStates: 19

----- Setting up reduced wavefunction bases (one per k-point) -----
average nbasis = 3657.132 , ideal nbasis = 3656.607

---------- Setting up coulomb interaction ----------
Fluid mode embedding: using embedded box, but periodic Coulomb kernel.
(Fluid response is responsible for (approximate) separation between periodic images.)
Setting up double-sized grid for truncated Coulomb potentials:
R = 
[    5.23966   -2.61983          0  ]
[          0    4.53768          0  ]
[          0          0         72  ]
unit cell volume = 1711.86
G =
[    1.19916   0.692335         -0  ]
[          0    1.38467          0  ]
[          0         -0  0.0872665  ]
Chosen fftbox size, S = [  24  24  336  ]
Integer grid location selected as the embedding center:
   Grid: [  0  0  0  ]
   Lattice: [  0  0  0  ]
   Cartesian: [  0  0  0  ]
Constructing Wigner-Seitz cell: 8 faces (6 quadrilaterals, 2 hexagons)
Range-separation parameter for embedded mesh potentials due to point charges: 0.589462 bohrs.

Initializing van der Waals corrections
	NOTE: vdW corrections apply only for interactions with fluid.
	Pt:  C6:  815.23 Eh-a0^6  R0: 3.326 a0 (WARNING: beyond Grimme's data set)

---------- Setting up ewald sum ----------
Optimum gaussian width for ewald sums = 3.649540 bohr.
Real space sum over 1805 unit cells with max indices [  9  9  2  ]
Reciprocal space sum over 5103 terms with max indices [  4  4  31  ]

---------- Allocating electronic variables ----------
Initializing wave functions:  reading from 'common.wfns'
----- createFluidSolver() ----- (Fluid-side solver setup)
   Initializing fluid molecule 'H2O'
     Initializing site 'O'
       Electron density: proportional to exp(-r/0.36935)*erfc((r-0.51523)/0.36823) with norm 6.826
       Charge density: gaussian nuclear width 0.478731 with net site charge 0.826
       Polarizability: cuspless exponential with width 0.32 and norm 3.73
       Hard sphere radius: 2.57003 bohrs
       Positions in reference frame:
         [ +0.000000 +0.000000 +0.000000 ]
     Initializing site 'H'
       Electron density: proportional to exp(-r/0.34641)*erfc((r-0)/0.390882) with norm 0.587
       Charge density: gaussian nuclear width 0.377945 with net site charge -0.413
       Polarizability: cuspless exponential with width 0.39 and norm 3.3
       Positions in reference frame:
         [ +0.000000 -1.441945 +1.122523 ]
         [ +0.000000 +1.441945 +1.122523 ]
     Net charge: 0   dipole magnitude: 0.927204
     Initializing spherical shell mfKernel with radius 2.61727 Bohr
     deltaS corrections:
       site 'O': -7.54299
       site 'H': -6.83917
   Initializing fluid molecule 'Na+'
     Initializing site 'Na'
       Electron density: proportional to exp(-r/0.19682)*erfc((r-0.71491)/0.41314) with norm 8.1383
       Charge density: gaussian nuclear width 0.365347 with net site charge -1
       Hard sphere radius: 1.86327 bohrs
       Positions in reference frame:
         [ +0.000000 +0.000000 +0.000000 ]
     Net charge: -1   dipole magnitude: 0
     Initializing gaussian mfKernel with width: 1.55004 Bohr
     deltaS corrections:
       site 'Na': -22.3555
   Initializing fluid molecule 'F-'
     Initializing site 'F'
       Electron density: proportional to exp(-r/0.38886)*erfc((r-0)/0.438782) with norm 8
       Charge density: gaussian nuclear width 0.374796 with net site charge 1
       Hard sphere radius: 2.39995 bohrs
       Positions in reference frame:
         [ +0.000000 +0.000000 +0.000000 ]
     Net charge: 1   dipole magnitude: 0
     Initializing gaussian mfKernel with width: 1.59012 Bohr
     deltaS corrections:
       site 'F': -9.04335

Correction to mu due to finite nuclear width = -0.0463682
   Cavity determined by nc: 0.00142 and sigma: 0.707107
   Nonlocal vdW cavity from gaussian model electron density with norm = 8 and sigma = 0.993594 bohr
   Charge asymmetry in cavity with sensitivity pCavity = 36.5 e-bohr/Eh
   Electrostatic cavity expanded by eta = 1.46 bohrs
   Weighted density cavitation model constrained by Nbulk: 0.0049383 bohr^-3, Pvap: 3.14029 kPa, Rvdw: 2.61727 bohr and sigmaBulk: 4.62e-05 Eh/bohr^2 at T: 298 K.
   Weighted density dispersion model using vdW pair potentials with single solvent site with sqrtC6eff: 0.77 SI.
Reading fluid state from 'common.fluidState'


---- Citations for features of the code used in this run ----

   Software package:
      R. Sundararaman, K. Letchworth-Weaver, K.A. Schwarz, D. Gunceler, Y. Ozhabes and T.A. Arias, 'JDFTx: software for joint density-functional theory', SoftwareX 6, 278 (2017)

   gga-PBEsol exchange-correlation functional:
      J.P. Perdew et al., Phys. Rev. Lett. 100, 136406 (2008)

   Pseudopotentials:
      KF Garrity, JW Bennett, KM Rabe and D Vanderbilt, Comput. Mater. Sci. 81, 446 (2014)

   Truncated Coulomb potentials:
      R. Sundararaman and T.A. Arias, Phys. Rev. B 87, 165122 (2013)

   Van der Waals correction pair-potentials:
      S. Grimme, J. Comput. Chem. 27, 1787 (2006)

   Charge-asymmetric nonlocally-determined local-electric (CANDLE) solvation model:
      R. Sundararaman and W.A. Goddard III, J. Chem. Phys. 142, 064107 (2015)

   Total energy minimization with Auxiliary Hamiltonian:
      C. Freysoldt, S. Boeck, and J. Neugebauer, Phys. Rev. B 79, 241103(R) (2009)

   Grand-canonical (fixed-potential) DFT:
      R. Sundararaman, W. A. Goddard III and T. A. Arias, J. Chem. Phys. 146, 114104 (2017)

This list may not be complete. Please suggest additional citations or
report any other bugs at https://github.com/shankar1729/jdftx/issues

Initialization completed successfully at t[s]:      3.46

Shifting auxilliary hamiltonian by 0.003717 to set nElectrons=79.909859
	Linear fluid (dielectric constant: 78.4, screening length: 5.74355 Bohr) occupying 0.600957 of unit cell:	Completed after 5 iterations at t[s]:      5.29

-------- Electronic minimization -----------
	Linear fluid (dielectric constant: 78.4, screening length: 5.74355 Bohr) occupying 0.600957 of unit cell:	Completed after 0 iterations at t[s]:      6.16
	FillingsUpdate:  mu: -0.230900000  nElectrons: 79.909859
ElecMinimize: Iter:   0  G: -426.680380319559902  |grad|_K:  1.737e-05  alpha:  1.000e+00
	Linear fluid (dielectric constant: 78.4, screening length: 5.74355 Bohr) occupying 0.648484 of unit cell:	Completed after 33 iterations at t[s]:     10.19
	Linear fluid (dielectric constant: 78.4, screening length: 5.74355 Bohr) occupying 0.600954 of unit cell:	Completed after 25 iterations at t[s]:     12.14
	FillingsUpdate:  mu: -0.230900000  nElectrons: 79.913295
	SubspaceRotationAdjust: set factor to 0.45
ElecMinimize: Iter:   1  G: -426.680384620402720  |grad|_K:  8.675e-06  alpha:  5.067e-03  linmin:  1.290e-01  t[s]:     13.59
	Linear fluid (dielectric constant: 78.4, screening length: 5.74355 Bohr) occupying 0.600952 of unit cell:	Completed after 10 iterations at t[s]:     15.03
	Linear fluid (dielectric constant: 78.4, screening length: 5.74355 Bohr) occupying 0.600947 of unit cell:	Completed after 12 iterations at t[s]:     16.52
	FillingsUpdate:  mu: -0.230900000  nElectrons: 79.912461
	SubspaceRotationAdjust: set factor to 0.192
ElecMinimize: Iter:   2  G: -426.680387443035499  |grad|_K:  3.898e-06  alpha:  1.333e-02  linmin:  1.485e-04  t[s]:     17.94
	Linear fluid (dielectric constant: 78.4, screening length: 5.74355 Bohr) occupying 0.600943 of unit cell:	Completed after 11 iterations at t[s]:     19.43
	Linear fluid (dielectric constant: 78.4, screening length: 5.74355 Bohr) occupying 0.600942 of unit cell:	Completed after 10 iterations at t[s]:     20.83
	FillingsUpdate:  mu: -0.230900000  nElectrons: 79.914025
	SubspaceRotationAdjust: set factor to 0.0865
	SubspaceRotationAdjust: resetting CG because factor has changed by 0.086458
	Linear fluid (dielectric constant: 78.4, screening length: 5.74355 Bohr) occupying 0.600942 of unit cell:	Completed after 0 iterations at t[s]:     22.83
ElecMinimize: 	State modified externally: resetting search direction.
ElecMinimize: Iter:   3  G: -426.680388616858181  |grad|_K:  1.427e-06  alpha:  1.838e-02
	Linear fluid (dielectric constant: 78.4, screening length: 5.74355 Bohr) occupying 0.600941 of unit cell:	Completed after 10 iterations at t[s]:     25.62
ElecMinimize: 	Predicted alpha/alphaT>3.000000, increasing alphaT to 5.514705e-02.
	Linear fluid (dielectric constant: 78.4, screening length: 5.74355 Bohr) occupying 0.600940 of unit cell:	Completed after 9 iterations at t[s]:     26.98
	Linear fluid (dielectric constant: 78.4, screening length: 5.74355 Bohr) occupying 0.600940 of unit cell:	Completed after 10 iterations at t[s]:     28.39
	FillingsUpdate:  mu: -0.230900000  nElectrons: 79.913428
	SubspaceRotationAdjust: set factor to 0.0551
ElecMinimize: Iter:   4  G: -426.680389181837427  |grad|_K:  1.118e-06  alpha:  6.590e-02  linmin: -8.976e-04  t[s]:     29.73
	Linear fluid (dielectric constant: 78.4, screening length: 5.74355 Bohr) occupying 0.600937 of unit cell:	Completed after 9 iterations at t[s]:     31.12
ElecMinimize: 	Predicted alpha/alphaT>3.000000, increasing alphaT to 1.976946e-01.
	Linear fluid (dielectric constant: 78.4, screening length: 5.74355 Bohr) occupying 0.600931 of unit cell:	Completed after 11 iterations at t[s]:     32.56
	Linear fluid (dielectric constant: 78.4, screening length: 5.74355 Bohr) occupying 0.600920 of unit cell:	Completed after 12 iterations at t[s]:     34.05
	FillingsUpdate:  mu: -0.230900000  nElectrons: 79.915572
	SubspaceRotationAdjust: set factor to 0.0678
ElecMinimize: Iter:   5  G: -426.680391551176456  |grad|_K:  6.825e-07  alpha:  4.490e-01  linmin: -8.671e-07  t[s]:     35.45
	Linear fluid (dielectric constant: 78.4, screening length: 5.74355 Bohr) occupying 0.600901 of unit cell:	Completed after 9 iterations at t[s]:     36.88
	Linear fluid (dielectric constant: 78.4, screening length: 5.74355 Bohr) occupying 0.600892 of unit cell:	Completed after 7 iterations at t[s]:     38.21
	FillingsUpdate:  mu: -0.230900000  nElectrons: 79.916478
	SubspaceRotationAdjust: set factor to 0.0613
ElecMinimize: Iter:   6  G: -426.680392830350513  |grad|_K:  7.836e-07  alpha:  6.535e-01  linmin:  7.124e-06  t[s]:     39.60
	Linear fluid (dielectric constant: 78.4, screening length: 5.74355 Bohr) occupying 0.600833 of unit cell:	Completed after 12 iterations at t[s]:     41.18
	Linear fluid (dielectric constant: 78.4, screening length: 5.74355 Bohr) occupying 0.600878 of unit cell:	Completed after 11 iterations at t[s]:     42.65
	FillingsUpdate:  mu: -0.230900000  nElectrons: 79.916044
	SubspaceRotationAdjust: set factor to 0.0442
ElecMinimize: Iter:   7  G: -426.680393242120942  |grad|_K:  9.803e-07  alpha:  1.583e-01  linmin: -1.016e-04  t[s]:     44.09
	Linear fluid (dielectric constant: 78.4, screening length: 5.74355 Bohr) occupying 0.600850 of unit cell:	Completed after 12 iterations at t[s]:     45.62
	Linear fluid (dielectric constant: 78.4, screening length: 5.74355 Bohr) occupying 0.600822 of unit cell:	Completed after 11 iterations at t[s]:     47.07
	FillingsUpdate:  mu: -0.230900000  nElectrons: 79.916915
	SubspaceRotationAdjust: set factor to 0.0553
ElecMinimize: Iter:   8  G: -426.680394542644763  |grad|_K:  7.322e-07  alpha:  3.212e-01  linmin:  2.608e-05  t[s]:     48.48
	Linear fluid (dielectric constant: 78.4, screening length: 5.74355 Bohr) occupying 0.600784 of unit cell:	Completed after 11 iterations at t[s]:     49.97
	Linear fluid (dielectric constant: 78.4, screening length: 5.74355 Bohr) occupying 0.600741 of unit cell:	Completed after 11 iterations at t[s]:     51.46
	FillingsUpdate:  mu: -0.230900000  nElectrons: 79.918364
	SubspaceRotationAdjust: set factor to 0.0363
ElecMinimize: Iter:   9  G: -426.680396090326326  |grad|_K:  1.283e-06  alpha:  6.874e-01  linmin: -4.938e-06  t[s]:     52.90
	Linear fluid (dielectric constant: 78.4, screening length: 5.74355 Bohr) occupying 0.600484 of unit cell:	Completed after 14 iterations at t[s]:     54.53
	Linear fluid (dielectric constant: 78.4, screening length: 5.74355 Bohr) occupying 0.600700 of unit cell:	Completed after 13 iterations at t[s]:     56.07
	FillingsUpdate:  mu: -0.230900000  nElectrons: 79.918024
	SubspaceRotationAdjust: set factor to 0.023
ElecMinimize: Iter:  10  G: -426.680396843097640  |grad|_K:  7.925e-07  alpha:  1.090e-01  linmin:  2.295e-06  t[s]:     57.57
	Linear fluid (dielectric constant: 78.4, screening length: 5.74355 Bohr) occupying 0.600685 of unit cell:	Completed after 7 iterations at t[s]:     59.03
ElecMinimize: 	Predicted alpha/alphaT>3.000000, increasing alphaT to 3.268955e-01.
	Linear fluid (dielectric constant: 78.4, screening length: 5.74355 Bohr) occupying 0.600653 of unit cell:	Completed after 10 iterations at t[s]:     60.57
	Linear fluid (dielectric constant: 78.4, screening length: 5.74355 Bohr) occupying 0.600621 of unit cell:	Completed after 10 iterations at t[s]:     62.05
	FillingsUpdate:  mu: -0.230900000  nElectrons: 79.918441
	SubspaceRotationAdjust: set factor to 0.0191
ElecMinimize: Iter:  11  G: -426.680398303656432  |grad|_K:  8.784e-07  alpha:  5.536e-01  linmin:  2.001e-05  t[s]:     63.51
	Linear fluid (dielectric constant: 78.4, screening length: 5.74355 Bohr) occupying 0.600527 of unit cell:	Completed after 13 iterations at t[s]:     65.14
	Linear fluid (dielectric constant: 78.4, screening length: 5.74355 Bohr) occupying 0.600584 of unit cell:	Completed after 11 iterations at t[s]:     66.65
	FillingsUpdate:  mu: -0.230900000  nElectrons: 79.919467
	SubspaceRotationAdjust: set factor to 0.0142
ElecMinimize: Iter:  12  G: -426.680399004448248  |grad|_K:  5.724e-07  alpha:  2.161e-01  linmin: -2.347e-06  t[s]:     68.16
	Linear fluid (dielectric constant: 78.4, screening length: 5.74355 Bohr) occupying 0.600572 of unit cell:	Completed after 9 iterations at t[s]:     69.68
	Linear fluid (dielectric constant: 78.4, screening length: 5.74355 Bohr) occupying 0.600563 of unit cell:	Completed after 6 iterations at t[s]:     71.03
	FillingsUpdate:  mu: -0.230900000  nElectrons: 79.919903
	SubspaceRotationAdjust: set factor to 0.0183
ElecMinimize: Iter:  13  G: -426.680399503496801  |grad|_K:  4.238e-07  alpha:  3.623e-01  linmin: -2.196e-05  t[s]:     72.50
	Linear fluid (dielectric constant: 78.4, screening length: 5.74355 Bohr) occupying 0.600555 of unit cell:	Completed after 9 iterations at t[s]:     73.98
	Linear fluid (dielectric constant: 78.4, screening length: 5.74355 Bohr) occupying 0.600556 of unit cell:	Completed after 7 iterations at t[s]:     75.31
	FillingsUpdate:  mu: -0.230900000  nElectrons: 79.919758
	SubspaceRotationAdjust: set factor to 0.0155
ElecMinimize: Iter:  14  G: -426.680399727442534  |grad|_K:  2.849e-07  alpha:  2.958e-01  linmin:  2.919e-04  t[s]:     76.76
	Linear fluid (dielectric constant: 78.4, screening length: 5.74355 Bohr) occupying 0.600553 of unit cell:	Completed after 2 iterations at t[s]:     77.97
	Linear fluid (dielectric constant: 78.4, screening length: 5.74355 Bohr) occupying 0.600553 of unit cell:	Completed after 0 iterations at t[s]:     79.07
	FillingsUpdate:  mu: -0.230900000  nElectrons: 79.919807
	SubspaceRotationAdjust: set factor to 0.0207
ElecMinimize: Iter:  15  G: -426.680399843490250  |grad|_K:  1.889e-07  alpha:  3.424e-01  linmin: -3.055e-04  t[s]:     80.51
	Linear fluid (dielectric constant: 78.4, screening length: 5.74355 Bohr) occupying 0.600550 of unit cell:	Completed after 9 iterations at t[s]:     81.96
	Linear fluid (dielectric constant: 78.4, screening length: 5.74355 Bohr) occupying 0.600550 of unit cell:	Completed after 2 iterations at t[s]:     83.12
	FillingsUpdate:  mu: -0.230900000  nElectrons: 79.919921
	SubspaceRotationAdjust: set factor to 0.019
ElecMinimize: Iter:  16  G: -426.680399889559055  |grad|_K:  1.609e-07  alpha:  3.070e-01  linmin: -1.616e-04  t[s]:     84.57
	Linear fluid (dielectric constant: 78.4, screening length: 5.74355 Bohr) occupying 0.600548 of unit cell:	Completed after 7 iterations at t[s]:     85.95
	Linear fluid (dielectric constant: 78.4, screening length: 5.74355 Bohr) occupying 0.600548 of unit cell:	Completed after 0 iterations at t[s]:     87.07
	FillingsUpdate:  mu: -0.230900000  nElectrons: 79.919850
	SubspaceRotationAdjust: set factor to 0.023
ElecMinimize: Iter:  17  G: -426.680399926126086  |grad|_K:  1.230e-07  alpha:  3.341e-01  linmin: -1.701e-03  t[s]:     88.55
	Linear fluid (dielectric constant: 78.4, screening length: 5.74355 Bohr) occupying 0.600545 of unit cell:	Completed after 6 iterations at t[s]:     89.88
	Linear fluid (dielectric constant: 78.4, screening length: 5.74355 Bohr) occupying 0.600543 of unit cell:	Completed after 2 iterations at t[s]:     91.04
	FillingsUpdate:  mu: -0.230900000  nElectrons: 79.919796
	SubspaceRotationAdjust: set factor to 0.0222
ElecMinimize: Iter:  18  G: -426.680399960836098  |grad|_K:  1.387e-07  alpha:  5.110e-01  linmin: -1.769e-03  t[s]:     92.47
	Linear fluid (dielectric constant: 78.4, screening length: 5.74355 Bohr) occupying 0.600536 of unit cell:	Completed after 9 iterations at t[s]:     93.90
	Linear fluid (dielectric constant: 78.4, screening length: 5.74355 Bohr) occupying 0.600537 of unit cell:	Completed after 3 iterations at t[s]:     95.09
	FillingsUpdate:  mu: -0.230900000  nElectrons: 79.919932
	SubspaceRotationAdjust: set factor to 0.0193
ElecMinimize: Iter:  19  G: -426.680399997699453  |grad|_K:  1.585e-07  alpha:  4.222e-01  linmin:  1.061e-03  t[s]:     96.49
	Linear fluid (dielectric constant: 78.4, screening length: 5.74355 Bohr) occupying 0.600529 of unit cell:	Completed after 6 iterations at t[s]:     97.82
	Linear fluid (dielectric constant: 78.4, screening length: 5.74355 Bohr) occupying 0.600524 of unit cell:	Completed after 2 iterations at t[s]:     98.98
	FillingsUpdate:  mu: -0.230900000  nElectrons: 79.919910
	SubspaceRotationAdjust: set factor to 0.0237
ElecMinimize: Iter:  20  G: -426.680400065228980  |grad|_K:  1.850e-07  alpha:  6.715e-01  linmin: -2.854e-04  t[s]:    100.40
	Linear fluid (dielectric constant: 78.4, screening length: 5.74355 Bohr) occupying 0.600505 of unit cell:	Completed after 10 iterations at t[s]:    101.88
	Linear fluid (dielectric constant: 78.4, screening length: 5.74355 Bohr) occupying 0.600511 of unit cell:	Completed after 5 iterations at t[s]:    103.14
	FillingsUpdate:  mu: -0.230900000  nElectrons: 79.919772
	SubspaceRotationAdjust: set factor to 0.0217
ElecMinimize: Iter:  21  G: -426.680400134805268  |grad|_K:  2.270e-07  alpha:  4.800e-01  linmin: -9.538e-05  t[s]:    104.54
	Linear fluid (dielectric constant: 78.4, screening length: 5.74355 Bohr) occupying 0.600491 of unit cell:	Completed after 10 iterations at t[s]:    106.02
	Linear fluid (dielectric constant: 78.4, screening length: 5.74355 Bohr) occupying 0.600496 of unit cell:	Completed after 8 iterations at t[s]:    107.39
	FillingsUpdate:  mu: -0.230900000  nElectrons: 79.919946
	SubspaceRotationAdjust: set factor to 0.0198
ElecMinimize: Iter:  22  G: -426.680400211177755  |grad|_K:  1.939e-07  alpha:  3.494e-01  linmin:  4.308e-05  t[s]:    108.77
	Linear fluid (dielectric constant: 78.4, screening length: 5.74355 Bohr) occupying 0.600486 of unit cell:	Completed after 2 iterations at t[s]:    109.97
	Linear fluid (dielectric constant: 78.4, screening length: 5.74355 Bohr) occupying 0.600480 of unit cell:	Completed after 3 iterations at t[s]:    111.14
	FillingsUpdate:  mu: -0.230900000  nElectrons: 79.920040
	SubspaceRotationAdjust: set factor to 0.0251
ElecMinimize: Iter:  23  G: -426.680400298029440  |grad|_K:  1.832e-07  alpha:  5.533e-01  linmin:  6.311e-05  t[s]:    112.54
	Linear fluid (dielectric constant: 78.4, screening length: 5.74355 Bohr) occupying 0.600465 of unit cell:	Completed after 9 iterations at t[s]:    113.97
	Linear fluid (dielectric constant: 78.4, screening length: 5.74355 Bohr) occupying 0.600469 of unit cell:	Completed after 7 iterations at t[s]:    115.30
	FillingsUpdate:  mu: -0.230900000  nElectrons: 79.919970
	SubspaceRotationAdjust: set factor to 0.0236
ElecMinimize: Iter:  24  G: -426.680400357128633  |grad|_K:  1.782e-07  alpha:  4.161e-01  linmin:  2.152e-04  t[s]:    116.70
	Linear fluid (dielectric constant: 78.4, screening length: 5.74355 Bohr) occupying 0.600457 of unit cell:	Completed after 9 iterations at t[s]:    118.10
	Linear fluid (dielectric constant: 78.4, screening length: 5.74355 Bohr) occupying 0.600458 of unit cell:	Completed after 0 iterations at t[s]:    119.14
	FillingsUpdate:  mu: -0.230900000  nElectrons: 79.920156
	SubspaceRotationAdjust: set factor to 0.0217
ElecMinimize: Iter:  25  G: -426.680400409798665  |grad|_K:  1.619e-07  alpha:  4.007e-01  linmin:  4.960e-05  t[s]:    120.55
	Linear fluid (dielectric constant: 78.4, screening length: 5.74355 Bohr) occupying 0.600449 of unit cell:	Completed after 6 iterations at t[s]:    121.86
	Linear fluid (dielectric constant: 78.4, screening length: 5.74355 Bohr) occupying 0.600446 of unit cell:	Completed after 3 iterations at t[s]:    123.02
	FillingsUpdate:  mu: -0.230900000  nElectrons: 79.920192
	SubspaceRotationAdjust: set factor to 0.0245
ElecMinimize: Iter:  26  G: -426.680400465018806  |grad|_K:  1.322e-07  alpha:  5.024e-01  linmin: -1.805e-04  t[s]:    124.37
	Linear fluid (dielectric constant: 78.4, screening length: 5.74355 Bohr) occupying 0.600438 of unit cell:	Completed after 6 iterations at t[s]:    125.68
	Linear fluid (dielectric constant: 78.4, screening length: 5.74355 Bohr) occupying 0.600437 of unit cell:	Completed after 0 iterations at t[s]:    126.74
	FillingsUpdate:  mu: -0.230900000  nElectrons: 79.920252
	SubspaceRotationAdjust: set factor to 0.0278
ElecMinimize: Iter:  27  G: -426.680400505998932  |grad|_K:  1.175e-07  alpha:  5.499e-01  linmin: -1.858e-04  t[s]:    128.14
	Linear fluid (dielectric constant: 78.4, screening length: 5.74355 Bohr) occupying 0.600429 of unit cell:	Completed after 9 iterations at t[s]:    129.57
	Linear fluid (dielectric constant: 78.4, screening length: 5.74355 Bohr) occupying 0.600431 of unit cell:	Completed after 5 iterations at t[s]:    130.83
	FillingsUpdate:  mu: -0.230900000  nElectrons: 79.920401
	SubspaceRotationAdjust: set factor to 0.0248
ElecMinimize: Iter:  28  G: -426.680400530831719  |grad|_K:  1.174e-07  alpha:  4.191e-01  linmin:  3.280e-04  t[s]:    132.26
	Linear fluid (dielectric constant: 78.4, screening length: 5.74355 Bohr) occupying 0.600425 of unit cell:	Completed after 9 iterations at t[s]:    133.68
	Linear fluid (dielectric constant: 78.4, screening length: 5.74355 Bohr) occupying 0.600427 of unit cell:	Completed after 5 iterations at t[s]:    134.91
	FillingsUpdate:  mu: -0.230900000  nElectrons: 79.920375
	SubspaceRotationAdjust: set factor to 0.0195
ElecMinimize: Iter:  29  G: -426.680400545748284  |grad|_K:  8.661e-08  alpha:  2.662e-01  linmin:  9.558e-05  t[s]:    136.33
	Linear fluid (dielectric constant: 78.4, screening length: 5.74355 Bohr) occupying 0.600425 of unit cell:	Completed after 6 iterations at t[s]:    137.65
	Linear fluid (dielectric constant: 78.4, screening length: 5.74355 Bohr) occupying 0.600424 of unit cell:	Completed after 1 iterations at t[s]:    138.77
	FillingsUpdate:  mu: -0.230900000  nElectrons: 79.920448
	SubspaceRotationAdjust: set factor to 0.0255
ElecMinimize: Iter:  30  G: -426.680400559168106  |grad|_K:  6.498e-08  alpha:  4.115e-01  linmin: -1.511e-03  t[s]:    140.17
	Linear fluid (dielectric constant: 78.4, screening length: 5.74355 Bohr) occupying 0.600422 of unit cell:	Completed after 6 iterations at t[s]:    141.51
	Linear fluid (dielectric constant: 78.4, screening length: 5.74355 Bohr) occupying 0.600422 of unit cell:	Completed after 0 iterations at t[s]:    142.55
	FillingsUpdate:  mu: -0.230900000  nElectrons: 79.920500
	SubspaceRotationAdjust: set factor to 0.0229
ElecMinimize: Iter:  31  G: -426.680400566844298  |grad|_K:  6.799e-08  alpha:  4.009e-01  linmin: -1.325e-03  t[s]:    143.93
	Linear fluid (dielectric constant: 78.4, screening length: 5.74355 Bohr) occupying 0.600420 of unit cell:	Completed after 7 iterations at t[s]:    145.27
	Linear fluid (dielectric constant: 78.4, screening length: 5.74355 Bohr) occupying 0.600420 of unit cell:	Completed after 3 iterations at t[s]:    146.45
	FillingsUpdate:  mu: -0.230900000  nElectrons: 79.920466
	SubspaceRotationAdjust: set factor to 0.0177
ElecMinimize: Iter:  32  G: -426.680400571868233  |grad|_K:  5.767e-08  alpha:  2.366e-01  linmin:  1.201e-03  t[s]:    147.85
ElecMinimize: Converged (|Delta G|<1.000000e-08 for 2 iters).
Setting wave functions to eigenvectors of Hamiltonian

# Ionic positions in lattice coordinates:
ion Pt   0.333333333333333  -0.333333333333333  -0.237676000000000 1
ion Pt  -0.333333333333333   0.333333333333333  -0.118838000000000 1
ion Pt   0.000000000000000   0.000000000000000   0.000000000000000 1
ion Pt   0.333333333333333  -0.333333333333333   0.118838000000000 1
ion Pt  -0.333333333333333   0.333333333333333   0.237676000000000 1


# Forces in Lattice coordinates:
force Pt  -0.000000000000000  -0.000000000000000  -0.028554805016355 1
force Pt   0.000000000000000   0.000000000000000   0.066912286612337 1
force Pt   0.000000000000000  -0.000000000000000   0.000000000000000 1
force Pt   0.000000000000000  -0.000000000000000  -0.066912286612337 1
force Pt   0.000000000000000  -0.000000000000000   0.028554805016354 1

# Energy components:
   A_diel =        0.0161690206196589
   Eewald =     4702.9680318706023172
       EH =     5097.5494908606751778
     Eloc =   -10322.4540754726094747
      Enl =       -5.2819128171269458
      Exc =     -141.5394576743280197
 Exc_core =       81.2082896017070937
       KE =      142.4530242537780680
  MuShift =        0.0036878441394540
-------------------------------------
     Etot =     -445.0767525125418160
       TS =        0.0572836802442062
-------------------------------------
        F =     -445.1340361927860272
      muN =      -18.4536356209177690
-------------------------------------
        G =     -426.6804005718682333

IonicMinimize: Iter:   0  G: -426.680400571868233  |grad|_K:  7.379e-04  t[s]:    148.41
IonicMinimize: None of the convergence criteria satisfied after 0 iterations.

#--- Lowdin population analysis ---
# oxidation-state Pt +0.049 +0.014 +0.013 +0.014 +0.049


Dumping 'common.fillings' ... done
Dumping 'common.wfns' ... done
Dumping 'common.fluidState' ... done
Dumping 'common.eigenvals' ... done
Dumping 'common.nbound' ... done
End date and time: Tue Mar 19 06:16:04 2019  (Duration: 0-0:02:28.66)
Done!
