
*************** JDFTx 1.4.2  ***************

Start date and time: Tue Mar 19 06:07:06 2019
Executable jdftx with command-line: -i Charged.in
Running on hosts (process indices):  Juans-MBP.lan1 (0-3)
Divided in process groups (process indices):  0 (0)  1 (1)  2 (2)  3 (3)
Resource initialization completed at t[s]:      0.00
Run totals: 4 processes, 12 threads, 0 GPUs


Input parsed successfully to the following command list (including defaults):

basis kpoint-dependent
coords-type Lattice
core-overlap-check vector
coulomb-interaction Slab 001
coulomb-truncation-embed 0 0 0
davidson-band-ratio 1.1
dump End State BoundCharge
dump-name common.$VAR
elec-cutoff 20 100
elec-eigen-algo Davidson
elec-ex-corr gga-PBEsol
elec-smearing Fermi 0.01
electronic-minimize  \
	dirUpdateScheme      FletcherReeves \
	linminMethod         DirUpdateRecommended \
	nIterations          200 \
	history              15 \
	knormThreshold       0 \
	energyDiffThreshold  1e-08 \
	nEnergyDiff          2 \
	alphaTstart          1 \
	alphaTmin            1e-10 \
	updateTestStepSize   yes \
	alphaTreduceFactor   0.1 \
	alphaTincreaseFactor 3 \
	nAlphaAdjustMax      3 \
	wolfeEnergy          0.0001 \
	wolfeGradient        0.9 \
	fdTest               no
exchange-regularization WignerSeitzTruncated
fluid LinearPCM 298.000000 1.013250
fluid-anion F- 1 MeanFieldLJ \
	epsBulk 1 \
	pMol 0 \
	epsInf 1 \
	Pvap 0 \
	sigmaBulk 0 \
	Rvdw 2.24877 \
	Res 0
fluid-cation Na+ 1 MeanFieldLJ \
	epsBulk 1 \
	pMol 0 \
	epsInf 1 \
	Pvap 0 \
	sigmaBulk 0 \
	Rvdw 2.19208 \
	Res 0
fluid-ex-corr lda-TF lda-PZ
fluid-gummel-loop 10 1.000000e-05
fluid-minimize  \
	dirUpdateScheme      PolakRibiere \
	linminMethod         DirUpdateRecommended \
	nIterations          400 \
	history              15 \
	knormThreshold       1e-11 \
	energyDiffThreshold  0 \
	nEnergyDiff          2 \
	alphaTstart          1 \
	alphaTmin            1e-10 \
	updateTestStepSize   yes \
	alphaTreduceFactor   0.1 \
	alphaTincreaseFactor 3 \
	nAlphaAdjustMax      6 \
	wolfeEnergy          0.0001 \
	wolfeGradient        0.9 \
	fdTest               no
fluid-solvent H2O 55.338 ScalarEOS \
	epsBulk 78.4 \
	pMol 0.92466 \
	epsInf 1.77 \
	Pvap 1.06736e-10 \
	sigmaBulk 4.62e-05 \
	Rvdw 2.61727 \
	Res 1.42
forces-output-coords Positions
initial-state common.$VAR
ion Pt   0.333333000000000  -0.333333000000000  -0.237676000000000 1
ion Pt  -0.333333000000000   0.333333000000000  -0.118838000000000 1
ion Pt   0.000000000000000   0.000000000000000   0.000000000000000 1
ion Pt   0.333333000000000  -0.333333000000000   0.118838000000000 1
ion Pt  -0.333333000000000   0.333333000000000   0.237676000000000 1
ion-species GBRV/$ID_pbesol.uspp
ion-width Ecut
ionic-minimize  \
	dirUpdateScheme      L-BFGS \
	linminMethod         DirUpdateRecommended \
	nIterations          0 \
	history              15 \
	knormThreshold       0.0001 \
	energyDiffThreshold  1e-06 \
	nEnergyDiff          2 \
	alphaTstart          1 \
	alphaTmin            1e-10 \
	updateTestStepSize   yes \
	alphaTreduceFactor   0.1 \
	alphaTincreaseFactor 3 \
	nAlphaAdjustMax      3 \
	wolfeEnergy          0.0001 \
	wolfeGradient        0.9 \
	fdTest               no
kpoint   0.000000000000   0.000000000000   0.000000000000  1.00000000000000
kpoint-folding 12 12 1 
latt-move-scale 1 1 1
latt-scale 1 1 1 
lattice Hexagonal 5.23966 36
lattice-minimize  \
	dirUpdateScheme      L-BFGS \
	linminMethod         DirUpdateRecommended \
	nIterations          0 \
	history              15 \
	knormThreshold       0 \
	energyDiffThreshold  1e-06 \
	nEnergyDiff          2 \
	alphaTstart          1 \
	alphaTmin            1e-10 \
	updateTestStepSize   yes \
	alphaTreduceFactor   0.1 \
	alphaTincreaseFactor 3 \
	nAlphaAdjustMax      3 \
	wolfeEnergy          0.0001 \
	wolfeGradient        0.9 \
	fdTest               no
lcao-params -1 1e-06 0.01
pcm-variant CANDLE
spintype no-spin
subspace-rotation-factor 1 yes
symmetries automatic
symmetry-threshold 0.0001
target-mu -0.2382 no




---------- Setting up symmetries ----------

Found 24 point-group symmetries of the bravais lattice
Found 12 space-group symmetries with basis
Applied RMS atom displacement 2.70575e-06 bohrs to make symmetries exact.

---------- Initializing the Grid ----------
R = 
[    5.23966   -2.61983          0  ]
[          0    4.53768          0  ]
[          0          0         36  ]
unit cell volume = 855.932
G =
[    1.19916   0.692335         -0  ]
[          0    1.38467          0  ]
[          0         -0   0.174533  ]
Minimum fftbox size, Smin = [  24  24  164  ]
Chosen fftbox size, S = [  24  24  168  ]

---------- Initializing tighter grid for wavefunction operations ----------
R = 
[    5.23966   -2.61983          0  ]
[          0    4.53768          0  ]
[          0          0         36  ]
unit cell volume = 855.932
G =
[    1.19916   0.692335         -0  ]
[          0    1.38467          0  ]
[          0         -0   0.174533  ]
Minimum fftbox size, Smin = [  24  24  148  ]
Chosen fftbox size, S = [  24  24  150  ]

---------- Exchange Correlation functional ----------
Initalized PBEsol GGA exchange.
Initalized PBEsol GGA correlation.

---------- Setting up pseudopotentials ----------
Width of ionic core gaussian charges (only for fluid interactions / plotting) set to 0.397384

Reading pseudopotential file '/Users/juanmendezvalderrama/Documents/JDFTX/build/pseudopotentials/GBRV/pt_pbesol.uspp':
  Title: Pt.  Created by USPP 7.3.6 on 22-9-15
  Reference state energy: -104.899005.  16 valence electrons in orbitals:
    |510>  occupation: 6  eigenvalue: -2.158847
    |520>  occupation: 9.5  eigenvalue: -0.336311
    |600>  occupation: 0  eigenvalue: -0.320324
    |610>  occupation: 0  eigenvalue: -0.119800
  lMax: 2  lLocal: 3  QijEcut: 5.5
  6 projectors sampled on a log grid with 745 points:
    l: 0  eig: -0.320324  rCut: 2.45
    l: 0  eig: 1.500000  rCut: 2.45
    l: 1  eig: -2.158847  rCut: 1.6
    l: 1  eig: -0.119800  rCut: 1.6
    l: 2  eig: -0.500000  rCut: 1.6
    l: 2  eig: -0.336311  rCut: 1.6
  Partial core density with radius 1.1
  Transforming core density to a uniform radial grid of dG=0.02 with 1620 points.
  Transforming local potential to a uniform radial grid of dG=0.02 with 1620 points.
  Transforming nonlocal projectors to a uniform radial grid of dG=0.02 with 432 points.
  Transforming density augmentations to a uniform radial grid of dG=0.02 with 1620 points.
  Transforming atomic orbitals to a uniform radial grid of dG=0.02 with 432 points.
  Core radius for overlap checks: 2.45 bohrs.

Initialized 1 species with 5 total atoms.

Folded 1 k-points by 12x12x1 to 144 k-points.

---------- Setting up k-points, bands, fillings ----------
Reduced to 19 k-points under symmetry. 
Computing the number of bands and number of electrons
Reading initial fillings from file common.fillings.
nElectrons:  80.000000   nBands: 60   nStates: 19

----- Setting up reduced wavefunction bases (one per k-point) -----
average nbasis = 3657.132 , ideal nbasis = 3656.607

---------- Setting up coulomb interaction ----------
Fluid mode embedding: using embedded box, but periodic Coulomb kernel.
(Fluid response is responsible for (approximate) separation between periodic images.)
Setting up double-sized grid for truncated Coulomb potentials:
R = 
[    5.23966   -2.61983          0  ]
[          0    4.53768          0  ]
[          0          0         72  ]
unit cell volume = 1711.86
G =
[    1.19916   0.692335         -0  ]
[          0    1.38467          0  ]
[          0         -0  0.0872665  ]
Chosen fftbox size, S = [  24  24  336  ]
Integer grid location selected as the embedding center:
   Grid: [  0  0  0  ]
   Lattice: [  0  0  0  ]
   Cartesian: [  0  0  0  ]
Constructing Wigner-Seitz cell: 8 faces (6 quadrilaterals, 2 hexagons)
Range-separation parameter for embedded mesh potentials due to point charges: 0.589462 bohrs.

Initializing van der Waals corrections
	NOTE: vdW corrections apply only for interactions with fluid.
	Pt:  C6:  815.23 Eh-a0^6  R0: 3.326 a0 (WARNING: beyond Grimme's data set)

---------- Setting up ewald sum ----------
Optimum gaussian width for ewald sums = 3.649540 bohr.
Real space sum over 1805 unit cells with max indices [  9  9  2  ]
Reciprocal space sum over 5103 terms with max indices [  4  4  31  ]

---------- Allocating electronic variables ----------
Initializing wave functions:  reading from 'common.wfns'
----- createFluidSolver() ----- (Fluid-side solver setup)
   Initializing fluid molecule 'H2O'
     Initializing site 'O'
       Electron density: proportional to exp(-r/0.36935)*erfc((r-0.51523)/0.36823) with norm 6.826
       Charge density: gaussian nuclear width 0.478731 with net site charge 0.826
       Polarizability: cuspless exponential with width 0.32 and norm 3.73
       Hard sphere radius: 2.57003 bohrs
       Positions in reference frame:
         [ +0.000000 +0.000000 +0.000000 ]
     Initializing site 'H'
       Electron density: proportional to exp(-r/0.34641)*erfc((r-0)/0.390882) with norm 0.587
       Charge density: gaussian nuclear width 0.377945 with net site charge -0.413
       Polarizability: cuspless exponential with width 0.39 and norm 3.3
       Positions in reference frame:
         [ +0.000000 -1.441945 +1.122523 ]
         [ +0.000000 +1.441945 +1.122523 ]
     Net charge: 0   dipole magnitude: 0.927204
     Initializing spherical shell mfKernel with radius 2.61727 Bohr
     deltaS corrections:
       site 'O': -7.54299
       site 'H': -6.83917
   Initializing fluid molecule 'Na+'
     Initializing site 'Na'
       Electron density: proportional to exp(-r/0.19682)*erfc((r-0.71491)/0.41314) with norm 8.1383
       Charge density: gaussian nuclear width 0.365347 with net site charge -1
       Hard sphere radius: 1.86327 bohrs
       Positions in reference frame:
         [ +0.000000 +0.000000 +0.000000 ]
     Net charge: -1   dipole magnitude: 0
     Initializing gaussian mfKernel with width: 1.55004 Bohr
     deltaS corrections:
       site 'Na': -22.3555
   Initializing fluid molecule 'F-'
     Initializing site 'F'
       Electron density: proportional to exp(-r/0.38886)*erfc((r-0)/0.438782) with norm 8
       Charge density: gaussian nuclear width 0.374796 with net site charge 1
       Hard sphere radius: 2.39995 bohrs
       Positions in reference frame:
         [ +0.000000 +0.000000 +0.000000 ]
     Net charge: 1   dipole magnitude: 0
     Initializing gaussian mfKernel with width: 1.59012 Bohr
     deltaS corrections:
       site 'F': -9.04335

Correction to mu due to finite nuclear width = -0.0463682
   Cavity determined by nc: 0.00142 and sigma: 0.707107
   Nonlocal vdW cavity from gaussian model electron density with norm = 8 and sigma = 0.993594 bohr
   Charge asymmetry in cavity with sensitivity pCavity = 36.5 e-bohr/Eh
   Electrostatic cavity expanded by eta = 1.46 bohrs
   Weighted density cavitation model constrained by Nbulk: 0.0049383 bohr^-3, Pvap: 3.14029 kPa, Rvdw: 2.61727 bohr and sigmaBulk: 4.62e-05 Eh/bohr^2 at T: 298 K.
   Weighted density dispersion model using vdW pair potentials with single solvent site with sqrtC6eff: 0.77 SI.
Reading fluid state from 'common.fluidState'


---- Citations for features of the code used in this run ----

   Software package:
      R. Sundararaman, K. Letchworth-Weaver, K.A. Schwarz, D. Gunceler, Y. Ozhabes and T.A. Arias, 'JDFTx: software for joint density-functional theory', SoftwareX 6, 278 (2017)

   gga-PBEsol exchange-correlation functional:
      J.P. Perdew et al., Phys. Rev. Lett. 100, 136406 (2008)

   Pseudopotentials:
      KF Garrity, JW Bennett, KM Rabe and D Vanderbilt, Comput. Mater. Sci. 81, 446 (2014)

   Truncated Coulomb potentials:
      R. Sundararaman and T.A. Arias, Phys. Rev. B 87, 165122 (2013)

   Van der Waals correction pair-potentials:
      S. Grimme, J. Comput. Chem. 27, 1787 (2006)

   Charge-asymmetric nonlocally-determined local-electric (CANDLE) solvation model:
      R. Sundararaman and W.A. Goddard III, J. Chem. Phys. 142, 064107 (2015)

   Total energy minimization with Auxiliary Hamiltonian:
      C. Freysoldt, S. Boeck, and J. Neugebauer, Phys. Rev. B 79, 241103(R) (2009)

   Grand-canonical (fixed-potential) DFT:
      R. Sundararaman, W. A. Goddard III and T. A. Arias, J. Chem. Phys. 146, 114104 (2017)

This list may not be complete. Please suggest additional citations or
report any other bugs at https://github.com/shankar1729/jdftx/issues

Initialization completed successfully at t[s]:      2.55

Shifting auxilliary hamiltonian by -0.036771 to set nElectrons=80.000000
	Linear fluid (dielectric constant: 78.4, screening length: 5.74355 Bohr) occupying 0.596129 of unit cell:	Completed after 10 iterations at t[s]:      4.42

-------- Electronic minimization -----------
	Linear fluid (dielectric constant: 78.4, screening length: 5.74355 Bohr) occupying 0.596129 of unit cell:	Completed after 0 iterations at t[s]:      5.29
	FillingsUpdate:  mu: -0.238200000  nElectrons: 80.000000
ElecMinimize: Iter:   0  G: -426.095247448315035  |grad|_K:  1.698e-04  alpha:  1.000e+00
	Linear fluid (dielectric constant: 78.4, screening length: 5.74355 Bohr) occupying 0.603074 of unit cell:	Completed after 25 iterations at t[s]:      8.70
	Linear fluid (dielectric constant: 78.4, screening length: 5.74355 Bohr) occupying 0.596147 of unit cell:	Completed after 26 iterations at t[s]:     10.56
	FillingsUpdate:  mu: -0.238200000  nElectrons: 79.978149
	SubspaceRotationAdjust: set factor to 0.515
ElecMinimize: Iter:   1  G: -426.095691003500235  |grad|_K:  4.343e-05  alpha:  3.296e-03  linmin: -7.783e-02  t[s]:     11.88
	Linear fluid (dielectric constant: 78.4, screening length: 5.74355 Bohr) occupying 0.596165 of unit cell:	Completed after 10 iterations at t[s]:     13.26
ElecMinimize: 	Predicted alpha/alphaT>3.000000, increasing alphaT to 9.888137e-03.
	Linear fluid (dielectric constant: 78.4, screening length: 5.74355 Bohr) occupying 0.596200 of unit cell:	Completed after 11 iterations at t[s]:     14.65
	Linear fluid (dielectric constant: 78.4, screening length: 5.74355 Bohr) occupying 0.596229 of unit cell:	Completed after 11 iterations at t[s]:     16.09
	FillingsUpdate:  mu: -0.238200000  nElectrons: 79.960533
	SubspaceRotationAdjust: set factor to 0.267
ElecMinimize: Iter:   2  G: -426.095824384286971  |grad|_K:  5.633e-05  alpha:  1.518e-02  linmin:  3.434e-04  t[s]:     17.46
	Linear fluid (dielectric constant: 78.4, screening length: 5.74355 Bohr) occupying 0.596401 of unit cell:	Completed after 15 iterations at t[s]:     19.00
	Linear fluid (dielectric constant: 78.4, screening length: 5.74355 Bohr) occupying 0.596422 of unit cell:	Completed after 8 iterations at t[s]:     20.32
	FillingsUpdate:  mu: -0.238200000  nElectrons: 79.948344
	SubspaceRotationAdjust: set factor to 0.153
ElecMinimize: Iter:   3  G: -426.096049560236906  |grad|_K:  2.466e-05  alpha:  1.697e-02  linmin:  8.003e-07  t[s]:     21.71
	Linear fluid (dielectric constant: 78.4, screening length: 5.74355 Bohr) occupying 0.596476 of unit cell:	Completed after 12 iterations at t[s]:     23.20
	Linear fluid (dielectric constant: 78.4, screening length: 5.74355 Bohr) occupying 0.596466 of unit cell:	Completed after 10 iterations at t[s]:     24.57
	FillingsUpdate:  mu: -0.238200000  nElectrons: 79.951959
	SubspaceRotationAdjust: set factor to 0.122
	SubspaceRotationAdjust: resetting CG because factor has changed by 0.121647
	Linear fluid (dielectric constant: 78.4, screening length: 5.74355 Bohr) occupying 0.596466 of unit cell:	Completed after 0 iterations at t[s]:     26.55
ElecMinimize: 	State modified externally: resetting search direction.
ElecMinimize: Iter:   4  G: -426.096084682665321  |grad|_K:  1.193e-05  alpha:  1.375e-02
	Linear fluid (dielectric constant: 78.4, screening length: 5.74355 Bohr) occupying 0.596472 of unit cell:	Completed after 11 iterations at t[s]:     29.29
ElecMinimize: 	Predicted alpha/alphaT>3.000000, increasing alphaT to 4.123976e-02.
	Linear fluid (dielectric constant: 78.4, screening length: 5.74355 Bohr) occupying 0.596483 of unit cell:	Completed after 12 iterations at t[s]:     30.73
ElecMinimize: 	Predicted alpha/alphaT>3.000000, increasing alphaT to 1.237193e-01.
	Linear fluid (dielectric constant: 78.4, screening length: 5.74355 Bohr) occupying 0.596516 of unit cell:	Completed after 14 iterations at t[s]:     32.23
	Linear fluid (dielectric constant: 78.4, screening length: 5.74355 Bohr) occupying 0.596555 of unit cell:	Completed after 14 iterations at t[s]:     33.74
	FillingsUpdate:  mu: -0.238200000  nElectrons: 79.945934
	SubspaceRotationAdjust: set factor to 0.0668
ElecMinimize: Iter:   5  G: -426.096217337645157  |grad|_K:  1.882e-05  alpha:  2.221e-01  linmin:  2.587e-04  t[s]:     35.11
	Linear fluid (dielectric constant: 78.4, screening length: 5.74355 Bohr) occupying 0.596858 of unit cell:	Completed after 17 iterations at t[s]:     36.75
	Linear fluid (dielectric constant: 78.4, screening length: 5.74355 Bohr) occupying 0.596622 of unit cell:	Completed after 16 iterations at t[s]:     38.33
	FillingsUpdate:  mu: -0.238200000  nElectrons: 79.953187
	SubspaceRotationAdjust: set factor to 0.0481
ElecMinimize: Iter:   6  G: -426.096288471068590  |grad|_K:  6.316e-06  alpha:  4.818e-02  linmin:  6.893e-04  t[s]:     39.69
	Linear fluid (dielectric constant: 78.4, screening length: 5.74355 Bohr) occupying 0.596642 of unit cell:	Completed after 10 iterations at t[s]:     41.10
ElecMinimize: 	Predicted alpha/alphaT>3.000000, increasing alphaT to 1.445486e-01.
	Linear fluid (dielectric constant: 78.4, screening length: 5.74355 Bohr) occupying 0.596681 of unit cell:	Completed after 12 iterations at t[s]:     42.54
ElecMinimize: 	Predicted alpha/alphaT>3.000000, increasing alphaT to 4.336458e-01.
	Linear fluid (dielectric constant: 78.4, screening length: 5.74355 Bohr) occupying 0.596800 of unit cell:	Completed after 13 iterations at t[s]:     44.00
	Linear fluid (dielectric constant: 78.4, screening length: 5.74355 Bohr) occupying 0.596958 of unit cell:	Completed after 14 iterations at t[s]:     45.53
	FillingsUpdate:  mu: -0.238200000  nElectrons: 79.945696
	SubspaceRotationAdjust: set factor to 0.0409
ElecMinimize: Iter:   7  G: -426.096425910682910  |grad|_K:  9.532e-06  alpha:  8.229e-01  linmin: -5.948e-05  t[s]:     46.90
	Linear fluid (dielectric constant: 78.4, screening length: 5.74355 Bohr) occupying 0.597930 of unit cell:	Completed after 14 iterations at t[s]:     48.45
	Linear fluid (dielectric constant: 78.4, screening length: 5.74355 Bohr) occupying 0.597119 of unit cell:	Completed after 14 iterations at t[s]:     49.97
	FillingsUpdate:  mu: -0.238200000  nElectrons: 79.934878
	SubspaceRotationAdjust: set factor to 0.026
ElecMinimize: Iter:   8  G: -426.096476784988624  |grad|_K:  7.489e-06  alpha:  1.330e-01  linmin: -6.789e-06  t[s]:     51.36
	Linear fluid (dielectric constant: 78.4, screening length: 5.74355 Bohr) occupying 0.597251 of unit cell:	Completed after 13 iterations at t[s]:     52.93
ElecMinimize: 	Predicted alpha/alphaT>3.000000, increasing alphaT to 3.989407e-01.
	Linear fluid (dielectric constant: 78.4, screening length: 5.74355 Bohr) occupying 0.597512 of unit cell:	Completed after 14 iterations at t[s]:     54.45
	Linear fluid (dielectric constant: 78.4, screening length: 5.74355 Bohr) occupying 0.597555 of unit cell:	Completed after 6 iterations at t[s]:     55.70
	FillingsUpdate:  mu: -0.238200000  nElectrons: 79.927432
	SubspaceRotationAdjust: set factor to 0.0412
ElecMinimize: Iter:   9  G: -426.096581263489611  |grad|_K:  6.704e-06  alpha:  4.431e-01  linmin: -2.398e-05  t[s]:     57.03
	Linear fluid (dielectric constant: 78.4, screening length: 5.74355 Bohr) occupying 0.597995 of unit cell:	Completed after 14 iterations at t[s]:     58.57
	Linear fluid (dielectric constant: 78.4, screening length: 5.74355 Bohr) occupying 0.597975 of unit cell:	Completed after 10 iterations at t[s]:     59.95
	FillingsUpdate:  mu: -0.238200000  nElectrons: 79.929751
	SubspaceRotationAdjust: set factor to 0.0306
ElecMinimize: Iter:  10  G: -426.096661058363281  |grad|_K:  9.428e-06  alpha:  4.221e-01  linmin: -5.029e-06  t[s]:     61.31
	Linear fluid (dielectric constant: 78.4, screening length: 5.74355 Bohr) occupying 0.598887 of unit cell:	Completed after 13 iterations at t[s]:     62.85
	Linear fluid (dielectric constant: 78.4, screening length: 5.74355 Bohr) occupying 0.598456 of unit cell:	Completed after 14 iterations at t[s]:     64.37
	FillingsUpdate:  mu: -0.238200000  nElectrons: 79.919541
	SubspaceRotationAdjust: set factor to 0.0208
ElecMinimize: Iter:  11  G: -426.096743348457267  |grad|_K:  6.084e-06  alpha:  2.204e-01  linmin:  1.279e-05  t[s]:     65.75
	Linear fluid (dielectric constant: 78.4, screening length: 5.74355 Bohr) occupying 0.598673 of unit cell:	Completed after 11 iterations at t[s]:     67.21
ElecMinimize: 	Predicted alpha/alphaT>3.000000, increasing alphaT to 6.612818e-01.
	Linear fluid (dielectric constant: 78.4, screening length: 5.74355 Bohr) occupying 0.599098 of unit cell:	Completed after 13 iterations at t[s]:     68.71
	Linear fluid (dielectric constant: 78.4, screening length: 5.74355 Bohr) occupying 0.599169 of unit cell:	Completed after 11 iterations at t[s]:     70.25
	FillingsUpdate:  mu: -0.238200000  nElectrons: 79.916768
	SubspaceRotationAdjust: set factor to 0.022
ElecMinimize: Iter:  12  G: -426.096857890168508  |grad|_K:  4.927e-06  alpha:  7.364e-01  linmin: -4.512e-05  t[s]:     71.79
	Linear fluid (dielectric constant: 78.4, screening length: 5.74355 Bohr) occupying 0.599579 of unit cell:	Completed after 14 iterations at t[s]:     73.36
	Linear fluid (dielectric constant: 78.4, screening length: 5.74355 Bohr) occupying 0.599506 of unit cell:	Completed after 6 iterations at t[s]:     74.60
	FillingsUpdate:  mu: -0.238200000  nElectrons: 79.914435
	SubspaceRotationAdjust: set factor to 0.0243
ElecMinimize: Iter:  13  G: -426.096919453658643  |grad|_K:  3.390e-06  alpha:  6.027e-01  linmin: -1.320e-05  t[s]:     75.95
	Linear fluid (dielectric constant: 78.4, screening length: 5.74355 Bohr) occupying 0.599639 of unit cell:	Completed after 13 iterations at t[s]:     77.45
	Linear fluid (dielectric constant: 78.4, screening length: 5.74355 Bohr) occupying 0.599638 of unit cell:	Completed after 0 iterations at t[s]:     78.45
	FillingsUpdate:  mu: -0.238200000  nElectrons: 79.911708
	SubspaceRotationAdjust: set factor to 0.0252
ElecMinimize: Iter:  14  G: -426.096948476007242  |grad|_K:  2.634e-06  alpha:  6.006e-01  linmin: -1.062e-05  t[s]:     79.78
	Linear fluid (dielectric constant: 78.4, screening length: 5.74355 Bohr) occupying 0.599722 of unit cell:	Completed after 12 iterations at t[s]:     81.26
	Linear fluid (dielectric constant: 78.4, screening length: 5.74355 Bohr) occupying 0.599704 of unit cell:	Completed after 9 iterations at t[s]:     82.62
	FillingsUpdate:  mu: -0.238200000  nElectrons: 79.912752
	SubspaceRotationAdjust: set factor to 0.0184
ElecMinimize: Iter:  15  G: -426.096962348303975  |grad|_K:  2.752e-06  alpha:  4.757e-01  linmin: -1.668e-05  t[s]:     83.94
	Linear fluid (dielectric constant: 78.4, screening length: 5.74355 Bohr) occupying 0.599803 of unit cell:	Completed after 14 iterations at t[s]:     85.44
	Linear fluid (dielectric constant: 78.4, screening length: 5.74355 Bohr) occupying 0.599768 of unit cell:	Completed after 12 iterations at t[s]:     86.86
	FillingsUpdate:  mu: -0.238200000  nElectrons: 79.909695
	SubspaceRotationAdjust: set factor to 0.0128
	SubspaceRotationAdjust: resetting CG because factor has changed by 0.105023
	Linear fluid (dielectric constant: 78.4, screening length: 5.74355 Bohr) occupying 0.599768 of unit cell:	Completed after 0 iterations at t[s]:     88.73
ElecMinimize: 	State modified externally: resetting search direction.
ElecMinimize: Iter:  16  G: -426.096972045760936  |grad|_K:  1.916e-06  alpha:  3.044e-01
	Linear fluid (dielectric constant: 78.4, screening length: 5.74355 Bohr) occupying 0.599780 of unit cell:	Completed after 12 iterations at t[s]:     91.54
	Linear fluid (dielectric constant: 78.4, screening length: 5.74355 Bohr) occupying 0.599781 of unit cell:	Completed after 6 iterations at t[s]:     93.02
	FillingsUpdate:  mu: -0.238200000  nElectrons: 79.910678
	SubspaceRotationAdjust: set factor to 0.0199
ElecMinimize: Iter:  17  G: -426.096976880947807  |grad|_K:  1.007e-06  alpha:  3.134e-01  linmin: -1.214e-04  t[s]:     94.53
	Linear fluid (dielectric constant: 78.4, screening length: 5.74355 Bohr) occupying 0.599797 of unit cell:	Completed after 8 iterations at t[s]:     95.90
	Linear fluid (dielectric constant: 78.4, screening length: 5.74355 Bohr) occupying 0.599816 of unit cell:	Completed after 10 iterations at t[s]:     97.35
	FillingsUpdate:  mu: -0.238200000  nElectrons: 79.910539
	SubspaceRotationAdjust: set factor to 0.0231
ElecMinimize: Iter:  18  G: -426.096979830458849  |grad|_K:  9.350e-07  alpha:  6.916e-01  linmin: -8.238e-05  t[s]:     98.80
	Linear fluid (dielectric constant: 78.4, screening length: 5.74355 Bohr) occupying 0.599863 of unit cell:	Completed after 10 iterations at t[s]:    100.27
	Linear fluid (dielectric constant: 78.4, screening length: 5.74355 Bohr) occupying 0.599869 of unit cell:	Completed after 6 iterations at t[s]:    101.56
	FillingsUpdate:  mu: -0.238200000  nElectrons: 79.910935
	SubspaceRotationAdjust: set factor to 0.0274
ElecMinimize: Iter:  19  G: -426.096982715128036  |grad|_K:  1.193e-06  alpha:  7.844e-01  linmin:  7.017e-06  t[s]:    102.95
	Linear fluid (dielectric constant: 78.4, screening length: 5.74355 Bohr) occupying 0.599967 of unit cell:	Completed after 12 iterations at t[s]:    104.47
	Linear fluid (dielectric constant: 78.4, screening length: 5.74355 Bohr) occupying 0.599972 of unit cell:	Completed after 6 iterations at t[s]:    105.75
	FillingsUpdate:  mu: -0.238200000  nElectrons: 79.909307
	SubspaceRotationAdjust: set factor to 0.0257
ElecMinimize: Iter:  20  G: -426.096987664330697  |grad|_K:  1.960e-06  alpha:  8.271e-01  linmin: -2.651e-06  t[s]:    107.14
	Linear fluid (dielectric constant: 78.4, screening length: 5.74355 Bohr) occupying 0.600244 of unit cell:	Completed after 13 iterations at t[s]:    108.67
	Linear fluid (dielectric constant: 78.4, screening length: 5.74355 Bohr) occupying 0.600114 of unit cell:	Completed after 12 iterations at t[s]:    110.17
	FillingsUpdate:  mu: -0.238200000  nElectrons: 79.910363
	SubspaceRotationAdjust: set factor to 0.0205
ElecMinimize: Iter:  21  G: -426.096994614145387  |grad|_K:  2.028e-06  alpha:  4.313e-01  linmin:  2.117e-05  t[s]:    111.58
	Linear fluid (dielectric constant: 78.4, screening length: 5.74355 Bohr) occupying 0.600266 of unit cell:	Completed after 12 iterations at t[s]:    113.09
	Linear fluid (dielectric constant: 78.4, screening length: 5.74355 Bohr) occupying 0.600318 of unit cell:	Completed after 11 iterations at t[s]:    114.52
	FillingsUpdate:  mu: -0.238200000  nElectrons: 79.908261
	SubspaceRotationAdjust: set factor to 0.0187
ElecMinimize: Iter:  22  G: -426.097004624511044  |grad|_K:  1.903e-06  alpha:  5.801e-01  linmin:  1.206e-06  t[s]:    115.92
	Linear fluid (dielectric constant: 78.4, screening length: 5.74355 Bohr) occupying 0.600493 of unit cell:	Completed after 12 iterations at t[s]:    117.44
	Linear fluid (dielectric constant: 78.4, screening length: 5.74355 Bohr) occupying 0.600538 of unit cell:	Completed after 8 iterations at t[s]:    118.77
	FillingsUpdate:  mu: -0.238200000  nElectrons: 79.907820
	SubspaceRotationAdjust: set factor to 0.0206
ElecMinimize: Iter:  23  G: -426.097015792739683  |grad|_K:  1.745e-06  alpha:  7.334e-01  linmin: -3.456e-05  t[s]:    120.15
	Linear fluid (dielectric constant: 78.4, screening length: 5.74355 Bohr) occupying 0.600735 of unit cell:	Completed after 12 iterations at t[s]:    121.66
	Linear fluid (dielectric constant: 78.4, screening length: 5.74355 Bohr) occupying 0.600695 of unit cell:	Completed after 11 iterations at t[s]:    123.11
	FillingsUpdate:  mu: -0.238200000  nElectrons: 79.906505
	SubspaceRotationAdjust: set factor to 0.0192
ElecMinimize: Iter:  24  G: -426.097023258644015  |grad|_K:  1.698e-06  alpha:  5.818e-01  linmin: -5.413e-06  t[s]:    124.50
	Linear fluid (dielectric constant: 78.4, screening length: 5.74355 Bohr) occupying 0.600852 of unit cell:	Completed after 12 iterations at t[s]:    126.03
	Linear fluid (dielectric constant: 78.4, screening length: 5.74355 Bohr) occupying 0.600825 of unit cell:	Completed after 10 iterations at t[s]:    127.43
	FillingsUpdate:  mu: -0.238200000  nElectrons: 79.907453
	SubspaceRotationAdjust: set factor to 0.019
ElecMinimize: Iter:  25  G: -426.097029072019780  |grad|_K:  1.476e-06  alpha:  4.799e-01  linmin: -5.177e-06  t[s]:    128.82
	Linear fluid (dielectric constant: 78.4, screening length: 5.74355 Bohr) occupying 0.600935 of unit cell:	Completed after 13 iterations at t[s]:    130.38
	Linear fluid (dielectric constant: 78.4, screening length: 5.74355 Bohr) occupying 0.600934 of unit cell:	Completed after 0 iterations at t[s]:    131.46
	FillingsUpdate:  mu: -0.238200000  nElectrons: 79.906043
	SubspaceRotationAdjust: set factor to 0.0219
ElecMinimize: Iter:  26  G: -426.097033437625555  |grad|_K:  1.365e-06  alpha:  4.768e-01  linmin:  3.765e-05  t[s]:    132.86
	Linear fluid (dielectric constant: 78.4, screening length: 5.74355 Bohr) occupying 0.601031 of unit cell:	Completed after 13 iterations at t[s]:    134.42
	Linear fluid (dielectric constant: 78.4, screening length: 5.74355 Bohr) occupying 0.601088 of unit cell:	Completed after 11 iterations at t[s]:    135.85
	FillingsUpdate:  mu: -0.238200000  nElectrons: 79.905118
	SubspaceRotationAdjust: set factor to 0.0231
ElecMinimize: Iter:  27  G: -426.097039384764230  |grad|_K:  1.534e-06  alpha:  7.606e-01  linmin: -2.379e-05  t[s]:    137.23
	Linear fluid (dielectric constant: 78.4, screening length: 5.74355 Bohr) occupying 0.601279 of unit cell:	Completed after 13 iterations at t[s]:    138.78
	Linear fluid (dielectric constant: 78.4, screening length: 5.74355 Bohr) occupying 0.601272 of unit cell:	Completed after 7 iterations at t[s]:    140.10
	FillingsUpdate:  mu: -0.238200000  nElectrons: 79.901497
	SubspaceRotationAdjust: set factor to 0.024
ElecMinimize: Iter:  28  G: -426.097046651395374  |grad|_K:  1.360e-06  alpha:  7.338e-01  linmin:  4.723e-06  t[s]:    141.50
	Linear fluid (dielectric constant: 78.4, screening length: 5.74355 Bohr) occupying 0.601412 of unit cell:	Completed after 13 iterations at t[s]:    143.05
	Linear fluid (dielectric constant: 78.4, screening length: 5.74355 Bohr) occupying 0.601363 of unit cell:	Completed after 12 iterations at t[s]:    144.52
	FillingsUpdate:  mu: -0.238200000  nElectrons: 79.900786
	SubspaceRotationAdjust: set factor to 0.0234
ElecMinimize: Iter:  29  G: -426.097050321089910  |grad|_K:  1.237e-06  alpha:  4.729e-01  linmin: -7.473e-06  t[s]:    145.89
	Linear fluid (dielectric constant: 78.4, screening length: 5.74355 Bohr) occupying 0.601442 of unit cell:	Completed after 13 iterations at t[s]:    147.42
	Linear fluid (dielectric constant: 78.4, screening length: 5.74355 Bohr) occupying 0.601420 of unit cell:	Completed after 11 iterations at t[s]:    148.88
	FillingsUpdate:  mu: -0.238200000  nElectrons: 79.899071
	SubspaceRotationAdjust: set factor to 0.0189
ElecMinimize: Iter:  30  G: -426.097052509836942  |grad|_K:  9.615e-07  alpha:  3.399e-01  linmin:  8.032e-07  t[s]:    150.25
	Linear fluid (dielectric constant: 78.4, screening length: 5.74355 Bohr) occupying 0.601456 of unit cell:	Completed after 12 iterations at t[s]:    151.77
	Linear fluid (dielectric constant: 78.4, screening length: 5.74355 Bohr) occupying 0.601462 of unit cell:	Completed after 9 iterations at t[s]:    153.12
	FillingsUpdate:  mu: -0.238200000  nElectrons: 79.899151
	SubspaceRotationAdjust: set factor to 0.0211
ElecMinimize: Iter:  31  G: -426.097054068556872  |grad|_K:  6.367e-07  alpha:  4.012e-01  linmin:  1.628e-05  t[s]:    154.51
	Linear fluid (dielectric constant: 78.4, screening length: 5.74355 Bohr) occupying 0.601483 of unit cell:	Completed after 10 iterations at t[s]:    155.95
	Linear fluid (dielectric constant: 78.4, screening length: 5.74355 Bohr) occupying 0.601496 of unit cell:	Completed after 6 iterations at t[s]:    157.22
	FillingsUpdate:  mu: -0.238200000  nElectrons: 79.898929
	SubspaceRotationAdjust: set factor to 0.0271
ElecMinimize: Iter:  32  G: -426.097055166747054  |grad|_K:  5.582e-07  alpha:  6.444e-01  linmin: -3.235e-05  t[s]:    158.64
	Linear fluid (dielectric constant: 78.4, screening length: 5.74355 Bohr) occupying 0.601522 of unit cell:	Completed after 6 iterations at t[s]:    159.96
	Linear fluid (dielectric constant: 78.4, screening length: 5.74355 Bohr) occupying 0.601521 of unit cell:	Completed after 2 iterations at t[s]:    161.08
	FillingsUpdate:  mu: -0.238200000  nElectrons: 79.899005
	SubspaceRotationAdjust: set factor to 0.0333
ElecMinimize: Iter:  33  G: -426.097055970461213  |grad|_K:  4.376e-07  alpha:  6.129e-01  linmin:  8.446e-05  t[s]:    162.48
	Linear fluid (dielectric constant: 78.4, screening length: 5.74355 Bohr) occupying 0.601532 of unit cell:	Completed after 9 iterations at t[s]:    163.89
	Linear fluid (dielectric constant: 78.4, screening length: 5.74355 Bohr) occupying 0.601528 of unit cell:	Completed after 8 iterations at t[s]:    165.24
	FillingsUpdate:  mu: -0.238200000  nElectrons: 79.899471
	SubspaceRotationAdjust: set factor to 0.0294
ElecMinimize: Iter:  34  G: -426.097056293484854  |grad|_K:  3.898e-07  alpha:  4.008e-01  linmin:  6.450e-05  t[s]:    166.63
	Linear fluid (dielectric constant: 78.4, screening length: 5.74355 Bohr) occupying 0.601532 of unit cell:	Completed after 9 iterations at t[s]:    168.05
	Linear fluid (dielectric constant: 78.4, screening length: 5.74355 Bohr) occupying 0.601530 of unit cell:	Completed after 10 iterations at t[s]:    169.45
	FillingsUpdate:  mu: -0.238200000  nElectrons: 79.899310
	SubspaceRotationAdjust: set factor to 0.0202
ElecMinimize: Iter:  35  G: -426.097056422110825  |grad|_K:  2.588e-07  alpha:  2.018e-01  linmin:  7.353e-06  t[s]:    170.87
	Linear fluid (dielectric constant: 78.4, screening length: 5.74355 Bohr) occupying 0.601530 of unit cell:	Completed after 6 iterations at t[s]:    172.20
	Linear fluid (dielectric constant: 78.4, screening length: 5.74355 Bohr) occupying 0.601530 of unit cell:	Completed after 6 iterations at t[s]:    173.49
	FillingsUpdate:  mu: -0.238200000  nElectrons: 79.899506
	SubspaceRotationAdjust: set factor to 0.0251
ElecMinimize: Iter:  36  G: -426.097056537695835  |grad|_K:  1.518e-07  alpha:  4.101e-01  linmin: -1.943e-05  t[s]:    174.88
	Linear fluid (dielectric constant: 78.4, screening length: 5.74355 Bohr) occupying 0.601529 of unit cell:	Completed after 6 iterations at t[s]:    176.19
	Linear fluid (dielectric constant: 78.4, screening length: 5.74355 Bohr) occupying 0.601528 of unit cell:	Completed after 2 iterations at t[s]:    177.36
	FillingsUpdate:  mu: -0.238200000  nElectrons: 79.899574
	SubspaceRotationAdjust: set factor to 0.0255
ElecMinimize: Iter:  37  G: -426.097056593193486  |grad|_K:  1.363e-07  alpha:  5.712e-01  linmin: -2.896e-04  t[s]:    178.79
	Linear fluid (dielectric constant: 78.4, screening length: 5.74355 Bohr) occupying 0.601526 of unit cell:	Completed after 10 iterations at t[s]:    180.27
	Linear fluid (dielectric constant: 78.4, screening length: 5.74355 Bohr) occupying 0.601527 of unit cell:	Completed after 6 iterations at t[s]:    181.66
	FillingsUpdate:  mu: -0.238200000  nElectrons: 79.899450
	SubspaceRotationAdjust: set factor to 0.0194
ElecMinimize: Iter:  38  G: -426.097056627543566  |grad|_K:  1.443e-07  alpha:  4.252e-01  linmin:  3.490e-04  t[s]:    183.15
	Linear fluid (dielectric constant: 78.4, screening length: 5.74355 Bohr) occupying 0.601525 of unit cell:	Completed after 9 iterations at t[s]:    184.68
	Linear fluid (dielectric constant: 78.4, screening length: 5.74355 Bohr) occupying 0.601525 of unit cell:	Completed after 0 iterations at t[s]:    185.82
	FillingsUpdate:  mu: -0.238200000  nElectrons: 79.899526
	SubspaceRotationAdjust: set factor to 0.0202
ElecMinimize: Iter:  39  G: -426.097056663332921  |grad|_K:  1.364e-07  alpha:  4.194e-01  linmin: -4.801e-05  t[s]:    187.30
	Linear fluid (dielectric constant: 78.4, screening length: 5.74355 Bohr) occupying 0.601523 of unit cell:	Completed after 2 iterations at t[s]:    188.55
	Linear fluid (dielectric constant: 78.4, screening length: 5.74355 Bohr) occupying 0.601522 of unit cell:	Completed after 3 iterations at t[s]:    189.77
	FillingsUpdate:  mu: -0.238200000  nElectrons: 79.899452
	SubspaceRotationAdjust: set factor to 0.0228
ElecMinimize: Iter:  40  G: -426.097056733630950  |grad|_K:  1.786e-07  alpha:  8.968e-01  linmin:  9.365e-06  t[s]:    191.15
	Linear fluid (dielectric constant: 78.4, screening length: 5.74355 Bohr) occupying 0.601519 of unit cell:	Completed after 9 iterations at t[s]:    192.54
	Linear fluid (dielectric constant: 78.4, screening length: 5.74355 Bohr) occupying 0.601519 of unit cell:	Completed after 6 iterations at t[s]:    193.81
	FillingsUpdate:  mu: -0.238200000  nElectrons: 79.899249
	SubspaceRotationAdjust: set factor to 0.0213
ElecMinimize: Iter:  41  G: -426.097056823110961  |grad|_K:  2.477e-07  alpha:  6.771e-01  linmin: -5.572e-05  t[s]:    195.18
	Linear fluid (dielectric constant: 78.4, screening length: 5.74355 Bohr) occupying 0.601515 of unit cell:	Completed after 10 iterations at t[s]:    196.59
	Linear fluid (dielectric constant: 78.4, screening length: 5.74355 Bohr) occupying 0.601517 of unit cell:	Completed after 10 iterations at t[s]:    197.97
	FillingsUpdate:  mu: -0.238200000  nElectrons: 79.899385
	SubspaceRotationAdjust: set factor to 0.0168
ElecMinimize: Iter:  42  G: -426.097056909048263  |grad|_K:  2.128e-07  alpha:  3.298e-01  linmin:  3.376e-06  t[s]:    199.38
	Linear fluid (dielectric constant: 78.4, screening length: 5.74355 Bohr) occupying 0.601517 of unit cell:	Completed after 2 iterations at t[s]:    200.53
	Linear fluid (dielectric constant: 78.4, screening length: 5.74355 Bohr) occupying 0.601516 of unit cell:	Completed after 2 iterations at t[s]:    201.70
	FillingsUpdate:  mu: -0.238200000  nElectrons: 79.899347
	SubspaceRotationAdjust: set factor to 0.0204
ElecMinimize: Iter:  43  G: -426.097057012245898  |grad|_K:  1.703e-07  alpha:  5.426e-01  linmin: -2.333e-06  t[s]:    203.19
	Linear fluid (dielectric constant: 78.4, screening length: 5.74355 Bohr) occupying 0.601516 of unit cell:	Completed after 8 iterations at t[s]:    204.54
	Linear fluid (dielectric constant: 78.4, screening length: 5.74355 Bohr) occupying 0.601516 of unit cell:	Completed after 7 iterations at t[s]:    205.87
	FillingsUpdate:  mu: -0.238200000  nElectrons: 79.899225
	SubspaceRotationAdjust: set factor to 0.0172
ElecMinimize: Iter:  44  G: -426.097057055365497  |grad|_K:  1.232e-07  alpha:  3.518e-01  linmin:  6.790e-05  t[s]:    207.15
	Linear fluid (dielectric constant: 78.4, screening length: 5.74355 Bohr) occupying 0.601516 of unit cell:	Completed after 9 iterations at t[s]:    208.51
	Linear fluid (dielectric constant: 78.4, screening length: 5.74355 Bohr) occupying 0.601516 of unit cell:	Completed after 0 iterations at t[s]:    209.52
	FillingsUpdate:  mu: -0.238200000  nElectrons: 79.899285
	SubspaceRotationAdjust: set factor to 0.016
ElecMinimize: Iter:  45  G: -426.097057076041040  |grad|_K:  8.581e-08  alpha:  3.262e-01  linmin:  2.478e-04  t[s]:    210.91
	Linear fluid (dielectric constant: 78.4, screening length: 5.74355 Bohr) occupying 0.601515 of unit cell:	Completed after 2 iterations at t[s]:    212.06
	Linear fluid (dielectric constant: 78.4, screening length: 5.74355 Bohr) occupying 0.601515 of unit cell:	Completed after 0 iterations at t[s]:    213.06
	FillingsUpdate:  mu: -0.238200000  nElectrons: 79.899261
	SubspaceRotationAdjust: set factor to 0.0216
ElecMinimize: Iter:  46  G: -426.097057091723798  |grad|_K:  6.776e-08  alpha:  5.112e-01  linmin: -2.547e-04  t[s]:    214.42
	Linear fluid (dielectric constant: 78.4, screening length: 5.74355 Bohr) occupying 0.601514 of unit cell:	Completed after 7 iterations at t[s]:    215.85
	Linear fluid (dielectric constant: 78.4, screening length: 5.74355 Bohr) occupying 0.601514 of unit cell:	Completed after 0 iterations at t[s]:    216.89
	FillingsUpdate:  mu: -0.238200000  nElectrons: 79.899210
	SubspaceRotationAdjust: set factor to 0.0158
ElecMinimize: Iter:  47  G: -426.097057099923518  |grad|_K:  8.834e-08  alpha:  4.256e-01  linmin: -7.435e-05  t[s]:    218.34
	Linear fluid (dielectric constant: 78.4, screening length: 5.74355 Bohr) occupying 0.601511 of unit cell:	Completed after 9 iterations at t[s]:    219.73
	Linear fluid (dielectric constant: 78.4, screening length: 5.74355 Bohr) occupying 0.601512 of unit cell:	Completed after 3 iterations at t[s]:    221.00
	FillingsUpdate:  mu: -0.238200000  nElectrons: 79.899251
	SubspaceRotationAdjust: set factor to 0.0162
ElecMinimize: Iter:  48  G: -426.097057108738852  |grad|_K:  6.984e-08  alpha:  2.747e-01  linmin:  9.088e-05  t[s]:    222.52
ElecMinimize: Converged (|Delta G|<1.000000e-08 for 2 iters).
Setting wave functions to eigenvectors of Hamiltonian

# Ionic positions in lattice coordinates:
ion Pt   0.333333333333333  -0.333333333333333  -0.237676000000000 1
ion Pt  -0.333333333333333   0.333333333333333  -0.118838000000000 1
ion Pt   0.000000000000000   0.000000000000000   0.000000000000000 1
ion Pt   0.333333333333333  -0.333333333333333   0.118838000000000 1
ion Pt  -0.333333333333333   0.333333333333333   0.237676000000000 1


# Forces in Lattice coordinates:
force Pt   0.000000000000000   0.000000000000000  -0.016933894206087 1
force Pt   0.000000000000000  -0.000000000000000   0.071546593630260 1
force Pt   0.000000000000000   0.000000000000000  -0.000000000000000 1
force Pt   0.000000000000000  -0.000000000000000  -0.071546593629350 1
force Pt   0.000000000000000  -0.000000000000000   0.016933894205177 1

# Energy components:
   A_diel =        0.0200298804814146
   Eewald =     4702.9680318706023172
       EH =     5096.2057712429414096
     Eloc =   -10321.1137246285525180
      Enl =       -5.2826996183497883
      Exc =     -141.5341711249178047
 Exc_core =       81.2082896017070937
       KE =      142.4521182914041049
  MuShift =        0.0046715541878751
-------------------------------------
     Etot =     -445.0716829304971043
       TS =        0.0573757440788066
-------------------------------------
        F =     -445.1290586745759015
      muN =      -19.0320015658370281
-------------------------------------
        G =     -426.0970571087388521

IonicMinimize: Iter:   0  G: -426.097057108738852  |grad|_K:  7.457e-04  t[s]:    223.05
IonicMinimize: None of the convergence criteria satisfied after 0 iterations.

#--- Lowdin population analysis ---
# oxidation-state Pt +0.058 +0.013 +0.017 +0.013 +0.058


Dumping 'common.fillings' ... done
Dumping 'common.wfns' ... done
Dumping 'common.fluidState' ... done
Dumping 'common.eigenvals' ... done
Dumping 'common.nbound' ... done
End date and time: Tue Mar 19 06:10:50 2019  (Duration: 0-0:03:43.29)
Done!
