--------------------------------------------------------------------------
Initialization of PSM library failed.

  Error: PSM is in the finalized state
--------------------------------------------------------------------------
--------------------------------------------------------------------------
The OpenFabrics (openib) BTL failed to initialize while trying to
allocate some locked memory.  This typically can indicate that the
memlock limits are set too low.  For most HPC installations, the
memlock limits should be set to "unlimited".  The failure occured
here:

  Local host:    node2003
  OMPI source:   btl_openib.c:753
  Function:      ompi_free_list_init_ex_new()
  Device:        qib0
  Memlock limit: 65536

You may need to consult with your system administrator to get this
problem fixed.  This FAQ entry on the Open MPI web site may also be
helpful:

    http://www.open-mpi.org/faq/?category=openfabrics#ib-locked-pages
--------------------------------------------------------------------------

*************** JDFTx 1.4.2 (git hash 74b6e54) ***************

Start date and time: Mon Mar 11 13:17:30 2019
Executable jdftx with command-line: -i Vacuum.in
Running on hosts (process indices):  node2003.physics.cornell.edu (0)
Divided in process groups (process indices):  0 (0)
Resource initialization completed at t[s]:      0.00
Run totals: 1 processes, 12 threads, 0 GPUs


Input parsed successfully to the following command list (including defaults):

basis kpoint-dependent
coords-type Lattice
core-overlap-check vector
coulomb-interaction Slab 001
coulomb-truncation-embed 0 0 0
davidson-band-ratio 1.1
dump End State IonicPositions
dump-name 100-Vacuum.$VAR
elec-cutoff 20 100
elec-eigen-algo Davidson
elec-ex-corr gga-PBEsol
elec-smearing Fermi 0.01
electronic-minimize  \
	dirUpdateScheme      FletcherReeves \
	linminMethod         DirUpdateRecommended \
	nIterations          100 \
	history              15 \
	knormThreshold       0 \
	energyDiffThreshold  1e-08 \
	nEnergyDiff          2 \
	alphaTstart          1 \
	alphaTmin            1e-10 \
	updateTestStepSize   yes \
	alphaTreduceFactor   0.1 \
	alphaTincreaseFactor 3 \
	nAlphaAdjustMax      3 \
	wolfeEnergy          0.0001 \
	wolfeGradient        0.9 \
	fdTest               no
electronic-scf  \
	nIterations	50 \
	energyDiffThreshold	1e-08 \
	residualThreshold	1e-07 \
	mixFraction	0.5 \
	qMetric	0.8 \
	history	10 \
	nEigSteps	2 \
	eigDiffThreshold	1e-08 \
	mixedVariable	Density \
	qKerker	0.8 \
	qKappa	-1 \
	verbose	no \
	mixFractionMag	1.5
exchange-regularization WignerSeitzTruncated
fluid None
fluid-ex-corr lda-TF lda-PZ
fluid-gummel-loop 10 1.000000e-05
fluid-minimize  \
	dirUpdateScheme      PolakRibiere \
	linminMethod         DirUpdateRecommended \
	nIterations          100 \
	history              15 \
	knormThreshold       0 \
	energyDiffThreshold  0 \
	nEnergyDiff          2 \
	alphaTstart          1 \
	alphaTmin            1e-10 \
	updateTestStepSize   yes \
	alphaTreduceFactor   0.1 \
	alphaTincreaseFactor 3 \
	nAlphaAdjustMax      3 \
	wolfeEnergy          0.0001 \
	wolfeGradient        0.9 \
	fdTest               no
fluid-solvent H2O 55.338 ScalarEOS \
	epsBulk 78.4 \
	pMol 0.92466 \
	epsInf 1.77 \
	Pvap 1.06736e-10 \
	sigmaBulk 4.62e-05 \
	Rvdw 2.61727 \
	Res 1.42 \
	tauNuc 343133 \
	omegaEl 0.55124 \
	gammaEl 0.257245
forces-output-coords Positions
ion Pt   0.000000000000000   0.000000000000000  -0.200000000000000 1
ion Pt   0.500000000000000   0.500000000000000  -0.100000000000000 1
ion Pt   0.000000000000000   0.000000000000000   0.000000000000000 1
ion Pt   0.500000000000000   0.500000000000000   0.100000000000000 1
ion Pt   0.000000000000000   0.000000000000000   0.200000000000000 1
ion-species GBRV/$ID_pbesol.uspp
ion-width 0
ionic-minimize  \
	dirUpdateScheme      L-BFGS \
	linminMethod         DirUpdateRecommended \
	nIterations          10 \
	history              15 \
	knormThreshold       0.0001 \
	energyDiffThreshold  1e-06 \
	nEnergyDiff          2 \
	alphaTstart          1 \
	alphaTmin            1e-10 \
	updateTestStepSize   yes \
	alphaTreduceFactor   0.1 \
	alphaTincreaseFactor 3 \
	nAlphaAdjustMax      3 \
	wolfeEnergy          0.0001 \
	wolfeGradient        0.9 \
	fdTest               no
kpoint   0.000000000000   0.000000000000   0.000000000000  1.00000000000000
kpoint-folding 12 12 1 
latt-move-scale 1 1 1
latt-scale 1 1 1 
lattice Tetragonal 5.23966 37.05
lattice-minimize  \
	dirUpdateScheme      L-BFGS \
	linminMethod         DirUpdateRecommended \
	nIterations          0 \
	history              15 \
	knormThreshold       0 \
	energyDiffThreshold  1e-06 \
	nEnergyDiff          2 \
	alphaTstart          1 \
	alphaTmin            1e-10 \
	updateTestStepSize   yes \
	alphaTreduceFactor   0.1 \
	alphaTincreaseFactor 3 \
	nAlphaAdjustMax      3 \
	wolfeEnergy          0.0001 \
	wolfeGradient        0.9 \
	fdTest               no
lcao-params -1 1e-06 0.01
pcm-variant GLSSA13
spintype no-spin
subspace-rotation-factor 1 yes
symmetries automatic
symmetry-threshold 0.0001



---------- Setting up symmetries ----------

Found 16 point-group symmetries of the bravais lattice
Found 16 space-group symmetries with basis
Applied RMS atom displacement 0 bohrs to make symmetries exact.

---------- Initializing the Grid ----------
R = 
[    5.23966          0          0  ]
[          0    5.23966          0  ]
[          0          0      37.05  ]
unit cell volume = 1017.17
G =
[    1.19916          0          0  ]
[          0    1.19916          0  ]
[          0          0   0.169587  ]
Minimum fftbox size, Smin = [  24  24  168  ]
Chosen fftbox size, S = [  24  24  168  ]

---------- Initializing tighter grid for wavefunction operations ----------
R = 
[    5.23966          0          0  ]
[          0    5.23966          0  ]
[          0          0      37.05  ]
unit cell volume = 1017.17
G =
[    1.19916          0          0  ]
[          0    1.19916          0  ]
[          0          0   0.169587  ]
Minimum fftbox size, Smin = [  24  24  152  ]
Chosen fftbox size, S = [  24  24  160  ]

---------- Exchange Correlation functional ----------
Initalized PBEsol GGA exchange.
Initalized PBEsol GGA correlation.

---------- Setting up pseudopotentials ----------
Width of ionic core gaussian charges (only for fluid interactions / plotting) set to 0

Reading pseudopotential file '/home/jfm343/JDFTXDIR/build/pseudopotentials/GBRV/pt_pbesol.uspp':
  Title: Pt.  Created by USPP 7.3.6 on 22-9-15
  Reference state energy: -104.899005.  16 valence electrons in orbitals:
    |510>  occupation: 6  eigenvalue: -2.158847
    |520>  occupation: 9.5  eigenvalue: -0.336311
    |600>  occupation: 0  eigenvalue: -0.320324
    |610>  occupation: 0  eigenvalue: -0.119800
  lMax: 2  lLocal: 3  QijEcut: 5.5
  6 projectors sampled on a log grid with 745 points:
    l: 0  eig: -0.320324  rCut: 2.45
    l: 0  eig: 1.500000  rCut: 2.45
    l: 1  eig: -2.158847  rCut: 1.6
    l: 1  eig: -0.119800  rCut: 1.6
    l: 2  eig: -0.500000  rCut: 1.6
    l: 2  eig: -0.336311  rCut: 1.6
  Partial core density with radius 1.1
  Transforming core density to a uniform radial grid of dG=0.02 with 1248 points.
  Transforming local potential to a uniform radial grid of dG=0.02 with 1248 points.
  Transforming nonlocal projectors to a uniform radial grid of dG=0.02 with 432 points.
  Transforming density augmentations to a uniform radial grid of dG=0.02 with 1248 points.
  Transforming atomic orbitals to a uniform radial grid of dG=0.02 with 432 points.
  Core radius for overlap checks: 2.45 bohrs.

Initialized 1 species with 5 total atoms.

Folded 1 k-points by 12x12x1 to 144 k-points.

---------- Setting up k-points, bands, fillings ----------
Reduced to 28 k-points under symmetry. 
Computing the number of bands and number of electrons
Calculating initial fillings.
nElectrons:  80.000000   nBands: 60   nStates: 28

----- Setting up reduced wavefunction bases (one per k-point) -----
average nbasis = 4346.104 , ideal nbasis = 4345.437

---------- Setting up coulomb interaction ----------
Setting up double-sized grid for truncated Coulomb potentials:
R = 
[    5.23966          0          0  ]
[          0    5.23966          0  ]
[          0          0       74.1  ]
unit cell volume = 2034.34
G =
[    1.19916          0          0  ]
[          0    1.19916          0  ]
[          0          0  0.0847933  ]
Chosen fftbox size, S = [  24  24  336  ]
Integer grid location selected as the embedding center:
   Grid: [  0  0  0  ]
   Lattice: [  0  0  0  ]
   Cartesian: [  0  0  0  ]
Constructing Wigner-Seitz cell: 6 faces (6 quadrilaterals, 0 hexagons)
Range-separation parameter for embedded mesh potentials due to point charges: 0.592447 bohrs.
Initialized slab truncation along lattice direction 001

---------- Setting up 2D ewald sum ----------
Optimum gaussian width for ewald sums = 3.125760 bohr.
Real space sums over 225 unit cells with max indices [  7  7  0  ]
Reciprocal space sums over 81 terms with max indices [  4  4  0  ]

---------- Allocating electronic variables ----------
Initializing wave functions:  linear combination of atomic orbitals
Pt pseudo-atom occupations:   s ( 0 )  p ( 6 0 )  d ( 10 )
	FillingsUpdate:  mu: -1.652357330  nElectrons: 80.000000
LCAOMinimize: Iter:   0  F: -443.0272908137054628  |grad|_K:  2.878e-02  alpha:  1.000e+00
LCAOMinimize: 	Step increased F by 1.337728e+01, reducing alpha to 1.801324e-02.
	FillingsUpdate:  mu: -1.095182429  nElectrons: 80.000000
LCAOMinimize: Iter:   1  F: -444.2390811841083291  |grad|_K:  1.408e-02  alpha:  1.801e-02  linmin: -3.215e-01  cgtest:  9.051e-01  t[s]:     22.43
LCAOMinimize: Encountered beta<0, resetting CG.
	FillingsUpdate:  mu: -0.509056344  nElectrons: 80.000000
LCAOMinimize: Iter:   2  F: -444.6012053247308131  |grad|_K:  6.523e-03  alpha:  3.637e-02  linmin:  4.650e-02  cgtest: -1.181e-01  t[s]:     28.82
LCAOMinimize: 	Predicted alpha/alphaT>3.000000, increasing alphaT to 1.091001e-01.
	FillingsUpdate:  mu: -0.179478297  nElectrons: 80.000000
LCAOMinimize: Iter:   3  F: -444.9432931608877766  |grad|_K:  2.799e-03  alpha:  1.684e-01  linmin:  2.511e-03  cgtest:  1.732e-01  t[s]:     37.20
	FillingsUpdate:  mu: -0.288466353  nElectrons: 80.000000
LCAOMinimize: Iter:   4  F: -445.0086805764998417  |grad|_K:  2.544e-03  alpha:  1.603e-01  linmin:  4.077e-03  cgtest: -3.530e-02  t[s]:     43.52
	FillingsUpdate:  mu: -0.197368878  nElectrons: 80.000000
LCAOMinimize: Iter:   5  F: -445.0239220054165230  |grad|_K:  1.499e-03  alpha:  5.408e-02  linmin:  4.029e-02  cgtest: -2.023e-01  t[s]:     49.95
LCAOMinimize: 	Predicted alpha/alphaT>3.000000, increasing alphaT to 1.622436e-01.
	FillingsUpdate:  mu: -0.168345028  nElectrons: 80.000000
LCAOMinimize: Iter:   6  F: -445.0500758074961141  |grad|_K:  9.902e-04  alpha:  2.666e-01  linmin:  3.369e-03  cgtest:  6.941e-01  t[s]:     58.35
LCAOMinimize: Encountered beta<0, resetting CG.
	FillingsUpdate:  mu: -0.211035846  nElectrons: 80.000000
LCAOMinimize: Iter:   7  F: -445.0519758793638516  |grad|_K:  3.704e-04  alpha:  3.505e-02  linmin: -5.229e-02  cgtest:  1.389e-01  t[s]:     64.87
LCAOMinimize: 	Predicted alpha/alphaT>3.000000, increasing alphaT to 1.051615e-01.
	FillingsUpdate:  mu: -0.213553575  nElectrons: 80.000000
LCAOMinimize: Iter:   8  F: -445.0532252624838065  |grad|_K:  1.811e-04  alpha:  1.688e-01  linmin: -4.007e-04  cgtest: -7.809e-02  t[s]:     73.36
	FillingsUpdate:  mu: -0.233109621  nElectrons: 80.000000
LCAOMinimize: Iter:   9  F: -445.0534631134322012  |grad|_K:  1.903e-04  alpha:  1.386e-01  linmin:  9.902e-04  cgtest:  1.414e-02  t[s]:     79.78
	FillingsUpdate:  mu: -0.231857864  nElectrons: 80.000000
LCAOMinimize: Iter:  10  F: -445.0535485469429204  |grad|_K:  2.795e-05  alpha:  4.558e-02  linmin:  1.309e-03  cgtest:  9.834e-02  t[s]:     86.21
LCAOMinimize: 	Predicted alpha/alphaT>3.000000, increasing alphaT to 1.367429e-01.
	FillingsUpdate:  mu: -0.232600852  nElectrons: 80.000000
LCAOMinimize: Iter:  11  F: -445.0535584313453796  |grad|_K:  2.676e-05  alpha:  2.431e-01  linmin:  1.941e-04  cgtest: -7.121e-04  t[s]:     94.86
	FillingsUpdate:  mu: -0.230904030  nElectrons: 80.000000
LCAOMinimize: Iter:  12  F: -445.0535613414831460  |grad|_K:  2.685e-05  alpha:  7.798e-02  linmin: -8.197e-05  cgtest:  1.045e-03  t[s]:    101.50
	FillingsUpdate:  mu: -0.230899388  nElectrons: 80.000000
LCAOMinimize: Iter:  13  F: -445.0535654286040312  |grad|_K:  5.993e-06  alpha:  1.088e-01  linmin:  6.335e-05  cgtest: -1.251e-02  t[s]:    108.34
LCAOMinimize: 	Predicted alpha/alphaT>3.000000, increasing alphaT to 3.263469e-01.
	FillingsUpdate:  mu: -0.231326039  nElectrons: 80.000000
LCAOMinimize: Iter:  14  F: -445.0535661054297520  |grad|_K:  4.846e-06  alpha:  3.613e-01  linmin:  3.162e-04  cgtest: -2.245e-03  t[s]:    116.94
	FillingsUpdate:  mu: -0.231574418  nElectrons: 80.000000
LCAOMinimize: Iter:  15  F: -445.0535661529159484  |grad|_K:  2.096e-06  alpha:  3.936e-02  linmin: -2.977e-04  cgtest:  6.478e-03  t[s]:    123.40
LCAOMinimize: Converged (|Delta F|<1.000000e-06 for 2 iters).


---- Citations for features of the code used in this run ----

   Software package:
      R. Sundararaman, K. Letchworth-Weaver, K.A. Schwarz, D. Gunceler, Y. Ozhabes and T.A. Arias, 'JDFTx: software for joint density-functional theory', SoftwareX 6, 278 (2017)

   gga-PBEsol exchange-correlation functional:
      J.P. Perdew et al., Phys. Rev. Lett. 100, 136406 (2008)

   Pseudopotentials:
      KF Garrity, JW Bennett, KM Rabe and D Vanderbilt, Comput. Mater. Sci. 81, 446 (2014)

   Truncated Coulomb potentials:
      R. Sundararaman and T.A. Arias, Phys. Rev. B 87, 165122 (2013)

This list may not be complete. Please suggest additional citations or
report any other bugs at https://github.com/shankar1729/jdftx/issues

Initialization completed successfully at t[s]:    125.07

	FillingsUpdate:  mu: -0.231574418  nElectrons: 80.000000

-------- Electronic minimization -----------
Will mix electronic density at each iteration.
	FillingsUpdate:  mu: -0.231574418  nElectrons: 80.000000
	FillingsUpdate:  mu: -0.233079113  nElectrons: 80.000000
SCF: Cycle:  0   F: -445.120213998171494   dF: -6.665e-02   |Residual|: 6.135e-02   |deigs|: 6.215e-02  t[s]:    151.15
